<?xml version="1.0"?>
<VTKFile type="UnstructuredGrid" version="0.1" byte_order="LittleEndian">
  <UnstructuredGrid>
    <Piece NumberOfCells="450" NumberOfPoints="660">
      <CellData Scalars="p (Pa)">
        <DataArray type="Float32" Name="p (Pa)" NumberOfComponents="1" format="ascii">
          -367910 -369803 -370660 -370862 -370832 -367668 -369520 -370296 -370420 -370345 -366819 -368600
          -369256 -369273 -369136 -364832 -366525 -367095 -367050 -366880 -361415 -363011 -363573 -363556
          -363407 -356925 -358385 -358960 -359015 -358922 -352053 -353354 -353926 -354050 -354018 -347554
          -348716 -349279 -349455 -349471 -344124 -345190 -345745 -345956 -346005 -342275 -343294 -343845
          -344074 -344139 -376951 -378848 -379418 -379276 -379026 -377154 -378968 -379366 -379065 -378725
          -376940 -378614 -378756 -378234 -377769 -375256 -376800 -376788 -376152 -375620 -371297 -372803
          -372898 -372377 -371902 -365813 -367200 -367436 -367114 -366770 -359831 -361045 -361359 -361207
          -360993 -354303 -355380 -355742 -355714 -355601 -350095 -351090 -351490 -351546 -351498 -347833
          -348792 -349214 -349312 -349297 -396046 -397834 -397622 -396608 -395819 -397625 -399151 -398451
          -397027 -396014 -399587 -400637 -399158 -397125 -395781 -399290 -399924 -397966 -395612 -394068
          -393561 -394556 -393231 -391315 -389918 -385298 -386328 -385612 -384314 -383281 -376504 -377343
          -376945 -376098 -375416 -368425 -369180 -369006 -368474 -368043 -362327 -363084 -363085 -362765
          -362490 -359079 -359853 -359951 -359741 -359541 -427455 -428696 -426710 -423910 -422060 -432824
          -433095 -429646 -425748 -423327 -441865 -439990 -433857 -428168 -424817 -448153 -443620 -435386
          -428584 -424512 -435526 -434212 -429089 -423876 -420053 -419909 -419537 -416601 -413263 -410499
          -405002 -404452 -402400 -400137 -398401 -391503 -391223 -389836 -388295 -387216 -381534 -381627
          -380777 -379733 -379027 -376338 -376647 -376090 -375304 -374768 -474389 -473942 -468382 -462330
          -458627 -489646 -485635 -475858 -467023 -461936 -522593 -507977 -488777 -474766 -467099 -568084
          -529503 -499403 -481207 -470737 -516174 -505262 -490943 -478564 -467378 -479213 -473953 -466642
          -459967 -452191 -451492 -446048 -440427 -435682 -431497 -426333 -422986 -419050 -415701 -413368
          -408614 -407058 -404560 -402266 -400818 -399782 -399074 -397333 -395592 -394513 -539017 -534887
          -523370 -512273 -505763 -576299 -561057 -539061 -521800 -512308 -685524 -622596 -570866 -540184
          -524081 -1.07736e+06 -719895 -610173 -564200 -537082 -677285 -633945 -606732 -581857 -540847 -580141
          -559864 -547633 -541168 -514178 -528715 -506437 -493851 -485937 -475568 -476855 -465251 -456455
          -450281 -445634 -443884 -438776 -433456 -429263 -426670 -428733 -426150 -422553 -419427 -417579
          -616267 -607846 -589496 -572310 -562314 -681089 -652428 -615520 -587636 -572422 -867809 -773611
          -675758 -621207 -592249 -1.11372e+06 -1.08948e+06 -784776 -685688 -620132 -843815 -833830 -882912 -860068
          -645940 -731224 -678465 -674638 -724654 -596692 -655866 -583702 -559612 -550297 -525521 -543242
          -514419 -498065 -488153 -479994 -484430 -473562 -464394 -457806 -453785 -460314 -455131 -449225
          -444464 -441728 -692798 -684615 -662533 -639729 -626114 -773204 -738324 -694186 -657577 -637422
          -1.00137e+06 -867905 -765880 -694512 -658235 -1.11865e+06 -1.04843e+06 -892542 -750593 -681744 -1.00524e+06 -991659
          -1.102e+06 -807164 -686821 -881712 -783797 -755088 -689918 -627958 -750058 -648647 -608681 -580149
          -557799 -596868 -556548 -532960 -517519 -507987 -519378 -504348 -491925 -483021 -477999 -488455
          -481330 -473579 -467443 -464014 -763343 -764521 -744685 -715304 -696837 -848107 -823560 -776870
          -731616 -706225 -1.10271e+06 -969631 -849619 -762771 -720895 -1.12849e+06 -1.13207e+06 -959637 -796714 -728817
          -1.13889e+06 -1.1317e+06 -1.0986e+06 -802410 -710084 -978806 -851676 -779924 -691268 -645238 -791928 -684838
          -634378 -598248 -578007 -622916 -581894 -555625 -537845 -528150 -540427 -525280 -512027 -502280
          -496969 -507652 -500500 -492368 -485801 -482150
        </DataArray>
        <DataArray type="Float32" Name="saturation" NumberOfComponents="1" format="ascii">
          0.758925 0.758722 0.758631 0.758609 0.758612 0.758951 0.758752 0.758669 0.758656 0.758664 0.759042 0.758851
          0.758781 0.758779 0.758793 0.759256 0.759073 0.759012 0.759017 0.759035 0.759627 0.759453 0.759392 0.759394
          0.75941 0.760118 0.759958 0.759894 0.759889 0.759899 0.760657 0.760513 0.760449 0.760435 0.760439 0.761161
          0.76103 0.760967 0.760947 0.760945 0.761548 0.761427 0.761365 0.761341 0.761335 0.761759 0.761643 0.76158
          0.761554 0.761546 0.757965 0.757766 0.757707 0.757722 0.757748 0.757944 0.757754 0.757712 0.757744 0.757779
          0.757966 0.757791 0.757776 0.757831 0.757879 0.758143 0.757981 0.757982 0.758049 0.758105 0.758563 0.758403
          0.758393 0.758448 0.758499 0.75915 0.759001 0.758976 0.75901 0.759047 0.759799 0.759667 0.759633 0.759649
          0.759672 0.760407 0.760288 0.760248 0.760251 0.760264 0.760876 0.760764 0.76072 0.760714 0.760719 0.761129
          0.761021 0.760974 0.760963 0.760965 0.756002 0.755822 0.755843 0.755945 0.756025 0.755843 0.75569 0.75576
          0.755903 0.756005 0.755647 0.755542 0.75569 0.755893 0.756028 0.755676 0.755613 0.755809 0.756045 0.756201
          0.756253 0.756152 0.756286 0.756481 0.756623 0.757097 0.75699 0.757064 0.757198 0.757305 0.758012 0.757924
          0.757966 0.758055 0.758127 0.758869 0.758789 0.758807 0.758864 0.75891 0.759527 0.759445 0.759445 0.75948
          0.75951 0.759881 0.759797 0.759786 0.759809 0.759831 0.752944 0.752827 0.753014 0.753279 0.753455 0.752441
          0.752416 0.752738 0.753105 0.753334 0.751607 0.751779 0.752345 0.752877 0.753193 0.751035 0.751447 0.752203
          0.752838 0.753222 0.75219 0.752312 0.75279 0.753282 0.753646 0.75366 0.753696 0.753978 0.754301 0.754569
          0.755109 0.755163 0.755367 0.755592 0.755765 0.756461 0.75649 0.756631 0.756789 0.756899 0.757486 0.757477
          0.757565 0.757674 0.757748 0.75803 0.757997 0.758056 0.758138 0.758195 0.748725 0.748764 0.749244 0.749772
          0.750099 0.747434 0.74777 0.748599 0.749362 0.749807 0.744765 0.74593 0.747506 0.748693 0.749355 0.741323
          0.744225 0.746627 0.748143 0.74904 0.745273 0.746149 0.747326 0.748368 0.749331 0.748313 0.748763 0.749395
          0.74998 0.750672 0.750735 0.751226 0.751738 0.752176 0.752565 0.75305 0.753367 0.753743 0.754065 0.75429
          0.754754 0.754906 0.755153 0.75538 0.755524 0.755627 0.755698 0.755872 0.756048 0.756156 0.743492 0.743808
          0.744704 0.745584 0.746109 0.740728 0.741837 0.743488 0.744828 0.745581 0.733499 0.737519 0.74112 0.743402
          0.744648 0.714445 0.731449 0.738358 0.741606 0.74364 0.734005 0.736766 0.738593 0.74033 0.743352 0.740453
          0.741925 0.742838 0.743327 0.745432 0.744286 0.746054 0.747084 0.747744 0.748624 0.748514 0.749516 0.750291
          0.750843 0.751263 0.751422 0.75189 0.752382 0.752774 0.753018 0.752824 0.753067 0.753408 0.753706 0.753884
          0.737944 0.738516 0.73979 0.741016 0.741745 0.73377 0.735567 0.737995 0.739921 0.741008 0.723584 0.728426
          0.734099 0.737612 0.739596 0.713041 0.713972 0.727823 0.733489 0.737684 0.724767 0.725269 0.722856 0.723962
          0.735985 0.730793 0.733932 0.734169 0.731172 0.739286 0.735348 0.740199 0.741944 0.742637 0.744535 0.74317
          0.745413 0.746737 0.747559 0.748246 0.747871 0.748796 0.749591 0.750172 0.750529 0.74995 0.750409 0.750938
          0.75137 0.751619 0.733057 0.733554 0.734925 0.736388 0.737284 0.728448 0.730388 0.732973 0.735239 0.736538
          0.717537 0.723579 0.728848 0.732953 0.735197 0.712854 0.715595 0.722398 0.729695 0.73373 0.717374 0.717949
          0.713489 0.726638 0.73342 0.722913 0.727875 0.729445 0.733231 0.737162 0.729725 0.73581 0.738459 0.740452
          0.742078 0.739274 0.742171 0.743957 0.745166 0.745929 0.745019 0.746223 0.747244 0.74799 0.748416 0.747533
          0.748133 0.748795 0.749325 0.749625 0.728987 0.728923 0.730027 0.731717 0.732813 0.724553 0.725791 0.728249
          0.730771 0.732253 0.713461 0.718899 0.724478 0.729019 0.73139 0.712484 0.71235 0.719336 0.727187 0.730932
          0.712096 0.712364 0.713619 0.726887 0.732024 0.7185 0.724376 0.728084 0.733149 0.73603 0.727441 0.733541
          0.736738 0.739178 0.740606 0.737498 0.740328 0.742239 0.743581 0.74433 0.743384 0.744554 0.745604 0.746392
          0.746827 0.745956 0.746537 0.747207 0.747756 0.748064
        </DataArray>
        <DataArray type="Float32" Name="process rank" NumberOfComponents="1" format="ascii">
          1 1 1 1 1 1 1 1 1 1 1 1
          1 1 1 1 1 1 1 1 1 1 1 1
          1 1 1 1 1 1 1 1 1 1 1 1
          1 1 1 1 1 1 1 1 1 1 1 1
          1 1 1 1 1 1 1 1 1 1 1 1
          1 1 1 1 1 1 1 1 1 1 1 1
          1 1 1 1 1 1 1 1 1 1 1 1
          1 1 1 1 1 1 1 1 1 1 1 1
          1 1 1 1 1 1 1 1 1 1 1 1
          1 1 1 1 1 1 1 1 1 1 1 1
          1 1 1 1 1 1 1 1 1 1 1 1
          1 1 1 1 1 1 1 1 1 1 1 1
          1 1 1 1 1 1 1 1 1 1 1 1
          1 1 1 1 1 1 1 1 1 1 1 1
          1 1 1 1 1 1 1 1 1 1 1 1
          1 1 1 1 1 1 1 1 1 1 1 1
          1 1 1 1 1 1 1 1 1 1 1 1
          1 1 1 1 1 1 1 1 1 1 1 1
          1 1 1 1 1 1 1 1 1 1 1 1
          1 1 1 1 1 1 1 1 1 1 1 1
          1 1 1 1 1 1 1 1 1 1 1 1
          1 1 1 1 1 1 1 1 1 1 1 1
          1 1 1 1 1 1 1 1 1 1 1 1
          1 1 1 1 1 1 1 1 1 1 1 1
          1 1 1 1 1 1 1 1 1 1 1 1
          1 1 1 1 1 1 1 1 1 1 1 1
          1 1 1 1 1 1 1 1 1 1 1 1
          1 1 1 1 1 1 1 1 1 1 1 1
          1 1 1 1 1 1 1 1 1 1 1 1
          1 1 1 1 1 1 1 1 1 1 1 1
          1 1 1 1 1 1 1 1 1 1 1 1
          1 1 1 1 1 1 1 1 1 1 1 1
          1 1 1 1 1 1 1 1 1 1 1 1
          1 1 1 1 1 1 1 1 1 1 1 1
          1 1 1 1 1 1 1 1 1 1 1 1
          1 1 1 1 1 1 1 1 1 1 1 1
          1 1 1 1 1 1 1 1 1 1 1 1
          1 1 1 1 1 1
        </DataArray>
      </CellData>
      <Points>
        <DataArray type="Float32" Name="Coordinates" NumberOfComponents="3" format="ascii">
          0 -0.04 -0.15 0.008 -0.04 -0.15 0 -0.032 -0.15 0.008 -0.032 -0.15
          0 -0.04 -0.142105 0.008 -0.04 -0.142105 0 -0.032 -0.142105 0.008 -0.032 -0.142105
          0.016 -0.04 -0.15 0.016 -0.032 -0.15 0.016 -0.04 -0.142105 0.016 -0.032 -0.142105
          0.024 -0.04 -0.15 0.024 -0.032 -0.15 0.024 -0.04 -0.142105 0.024 -0.032 -0.142105
          0.032 -0.04 -0.15 0.032 -0.032 -0.15 0.032 -0.04 -0.142105 0.032 -0.032 -0.142105
          0.04 -0.04 -0.15 0.04 -0.032 -0.15 0.04 -0.04 -0.142105 0.04 -0.032 -0.142105
          0 -0.024 -0.15 0.008 -0.024 -0.15 0 -0.024 -0.142105 0.008 -0.024 -0.142105
          0.016 -0.024 -0.15 0.016 -0.024 -0.142105 0.024 -0.024 -0.15 0.024 -0.024 -0.142105
          0.032 -0.024 -0.15 0.032 -0.024 -0.142105 0.04 -0.024 -0.15 0.04 -0.024 -0.142105
          0 -0.016 -0.15 0.008 -0.016 -0.15 0 -0.016 -0.142105 0.008 -0.016 -0.142105
          0.016 -0.016 -0.15 0.016 -0.016 -0.142105 0.024 -0.016 -0.15 0.024 -0.016 -0.142105
          0.032 -0.016 -0.15 0.032 -0.016 -0.142105 0.04 -0.016 -0.15 0.04 -0.016 -0.142105
          0 -0.008 -0.15 0.008 -0.008 -0.15 0 -0.008 -0.142105 0.008 -0.008 -0.142105
          0.016 -0.008 -0.15 0.016 -0.008 -0.142105 0.024 -0.008 -0.15 0.024 -0.008 -0.142105
          0.032 -0.008 -0.15 0.032 -0.008 -0.142105 0.04 -0.008 -0.15 0.04 -0.008 -0.142105
          0 0 -0.15 0.008 0 -0.15 0 0 -0.142105 0.008 0 -0.142105
          0.016 0 -0.15 0.016 0 -0.142105 0.024 0 -0.15 0.024 0 -0.142105
          0.032 0 -0.15 0.032 0 -0.142105 0.04 0 -0.15 0.04 0 -0.142105
          0 0.008 -0.15 0.008 0.008 -0.15 0 0.008 -0.142105 0.008 0.008 -0.142105
          0.016 0.008 -0.15 0.016 0.008 -0.142105 0.024 0.008 -0.15 0.024 0.008 -0.142105
          0.032 0.008 -0.15 0.032 0.008 -0.142105 0.04 0.008 -0.15 0.04 0.008 -0.142105
          0 0.016 -0.15 0.008 0.016 -0.15 0 0.016 -0.142105 0.008 0.016 -0.142105
          0.016 0.016 -0.15 0.016 0.016 -0.142105 0.024 0.016 -0.15 0.024 0.016 -0.142105
          0.032 0.016 -0.15 0.032 0.016 -0.142105 0.04 0.016 -0.15 0.04 0.016 -0.142105
          0 0.024 -0.15 0.008 0.024 -0.15 0 0.024 -0.142105 0.008 0.024 -0.142105
          0.016 0.024 -0.15 0.016 0.024 -0.142105 0.024 0.024 -0.15 0.024 0.024 -0.142105
          0.032 0.024 -0.15 0.032 0.024 -0.142105 0.04 0.024 -0.15 0.04 0.024 -0.142105
          0 0.032 -0.15 0.008 0.032 -0.15 0 0.032 -0.142105 0.008 0.032 -0.142105
          0.016 0.032 -0.15 0.016 0.032 -0.142105 0.024 0.032 -0.15 0.024 0.032 -0.142105
          0.032 0.032 -0.15 0.032 0.032 -0.142105 0.04 0.032 -0.15 0.04 0.032 -0.142105
          0 0.04 -0.15 0.008 0.04 -0.15 0 0.04 -0.142105 0.008 0.04 -0.142105
          0.016 0.04 -0.15 0.016 0.04 -0.142105 0.024 0.04 -0.15 0.024 0.04 -0.142105
          0.032 0.04 -0.15 0.032 0.04 -0.142105 0.04 0.04 -0.15 0.04 0.04 -0.142105
          0 -0.04 -0.134211 0.008 -0.04 -0.134211 0 -0.032 -0.134211 0.008 -0.032 -0.134211
          0.016 -0.04 -0.134211 0.016 -0.032 -0.134211 0.024 -0.04 -0.134211 0.024 -0.032 -0.134211
          0.032 -0.04 -0.134211 0.032 -0.032 -0.134211 0.04 -0.04 -0.134211 0.04 -0.032 -0.134211
          0 -0.024 -0.134211 0.008 -0.024 -0.134211 0.016 -0.024 -0.134211 0.024 -0.024 -0.134211
          0.032 -0.024 -0.134211 0.04 -0.024 -0.134211 0 -0.016 -0.134211 0.008 -0.016 -0.134211
          0.016 -0.016 -0.134211 0.024 -0.016 -0.134211 0.032 -0.016 -0.134211 0.04 -0.016 -0.134211
          0 -0.008 -0.134211 0.008 -0.008 -0.134211 0.016 -0.008 -0.134211 0.024 -0.008 -0.134211
          0.032 -0.008 -0.134211 0.04 -0.008 -0.134211 0 0 -0.134211 0.008 0 -0.134211
          0.016 0 -0.134211 0.024 0 -0.134211 0.032 0 -0.134211 0.04 0 -0.134211
          0 0.008 -0.134211 0.008 0.008 -0.134211 0.016 0.008 -0.134211 0.024 0.008 -0.134211
          0.032 0.008 -0.134211 0.04 0.008 -0.134211 0 0.016 -0.134211 0.008 0.016 -0.134211
          0.016 0.016 -0.134211 0.024 0.016 -0.134211 0.032 0.016 -0.134211 0.04 0.016 -0.134211
          0 0.024 -0.134211 0.008 0.024 -0.134211 0.016 0.024 -0.134211 0.024 0.024 -0.134211
          0.032 0.024 -0.134211 0.04 0.024 -0.134211 0 0.032 -0.134211 0.008 0.032 -0.134211
          0.016 0.032 -0.134211 0.024 0.032 -0.134211 0.032 0.032 -0.134211 0.04 0.032 -0.134211
          0 0.04 -0.134211 0.008 0.04 -0.134211 0.016 0.04 -0.134211 0.024 0.04 -0.134211
          0.032 0.04 -0.134211 0.04 0.04 -0.134211 0 -0.04 -0.126316 0.008 -0.04 -0.126316
          0 -0.032 -0.126316 0.008 -0.032 -0.126316 0.016 -0.04 -0.126316 0.016 -0.032 -0.126316
          0.024 -0.04 -0.126316 0.024 -0.032 -0.126316 0.032 -0.04 -0.126316 0.032 -0.032 -0.126316
          0.04 -0.04 -0.126316 0.04 -0.032 -0.126316 0 -0.024 -0.126316 0.008 -0.024 -0.126316
          0.016 -0.024 -0.126316 0.024 -0.024 -0.126316 0.032 -0.024 -0.126316 0.04 -0.024 -0.126316
          0 -0.016 -0.126316 0.008 -0.016 -0.126316 0.016 -0.016 -0.126316 0.024 -0.016 -0.126316
          0.032 -0.016 -0.126316 0.04 -0.016 -0.126316 0 -0.008 -0.126316 0.008 -0.008 -0.126316
          0.016 -0.008 -0.126316 0.024 -0.008 -0.126316 0.032 -0.008 -0.126316 0.04 -0.008 -0.126316
          0 0 -0.126316 0.008 0 -0.126316 0.016 0 -0.126316 0.024 0 -0.126316
          0.032 0 -0.126316 0.04 0 -0.126316 0 0.008 -0.126316 0.008 0.008 -0.126316
          0.016 0.008 -0.126316 0.024 0.008 -0.126316 0.032 0.008 -0.126316 0.04 0.008 -0.126316
          0 0.016 -0.126316 0.008 0.016 -0.126316 0.016 0.016 -0.126316 0.024 0.016 -0.126316
          0.032 0.016 -0.126316 0.04 0.016 -0.126316 0 0.024 -0.126316 0.008 0.024 -0.126316
          0.016 0.024 -0.126316 0.024 0.024 -0.126316 0.032 0.024 -0.126316 0.04 0.024 -0.126316
          0 0.032 -0.126316 0.008 0.032 -0.126316 0.016 0.032 -0.126316 0.024 0.032 -0.126316
          0.032 0.032 -0.126316 0.04 0.032 -0.126316 0 0.04 -0.126316 0.008 0.04 -0.126316
          0.016 0.04 -0.126316 0.024 0.04 -0.126316 0.032 0.04 -0.126316 0.04 0.04 -0.126316
          0 -0.04 -0.118421 0.008 -0.04 -0.118421 0 -0.032 -0.118421 0.008 -0.032 -0.118421
          0.016 -0.04 -0.118421 0.016 -0.032 -0.118421 0.024 -0.04 -0.118421 0.024 -0.032 -0.118421
          0.032 -0.04 -0.118421 0.032 -0.032 -0.118421 0.04 -0.04 -0.118421 0.04 -0.032 -0.118421
          0 -0.024 -0.118421 0.008 -0.024 -0.118421 0.016 -0.024 -0.118421 0.024 -0.024 -0.118421
          0.032 -0.024 -0.118421 0.04 -0.024 -0.118421 0 -0.016 -0.118421 0.008 -0.016 -0.118421
          0.016 -0.016 -0.118421 0.024 -0.016 -0.118421 0.032 -0.016 -0.118421 0.04 -0.016 -0.118421
          0 -0.008 -0.118421 0.008 -0.008 -0.118421 0.016 -0.008 -0.118421 0.024 -0.008 -0.118421
          0.032 -0.008 -0.118421 0.04 -0.008 -0.118421 0 0 -0.118421 0.008 0 -0.118421
          0.016 0 -0.118421 0.024 0 -0.118421 0.032 0 -0.118421 0.04 0 -0.118421
          0 0.008 -0.118421 0.008 0.008 -0.118421 0.016 0.008 -0.118421 0.024 0.008 -0.118421
          0.032 0.008 -0.118421 0.04 0.008 -0.118421 0 0.016 -0.118421 0.008 0.016 -0.118421
          0.016 0.016 -0.118421 0.024 0.016 -0.118421 0.032 0.016 -0.118421 0.04 0.016 -0.118421
          0 0.024 -0.118421 0.008 0.024 -0.118421 0.016 0.024 -0.118421 0.024 0.024 -0.118421
          0.032 0.024 -0.118421 0.04 0.024 -0.118421 0 0.032 -0.118421 0.008 0.032 -0.118421
          0.016 0.032 -0.118421 0.024 0.032 -0.118421 0.032 0.032 -0.118421 0.04 0.032 -0.118421
          0 0.04 -0.118421 0.008 0.04 -0.118421 0.016 0.04 -0.118421 0.024 0.04 -0.118421
          0.032 0.04 -0.118421 0.04 0.04 -0.118421 0 -0.04 -0.110526 0.008 -0.04 -0.110526
          0 -0.032 -0.110526 0.008 -0.032 -0.110526 0.016 -0.04 -0.110526 0.016 -0.032 -0.110526
          0.024 -0.04 -0.110526 0.024 -0.032 -0.110526 0.032 -0.04 -0.110526 0.032 -0.032 -0.110526
          0.04 -0.04 -0.110526 0.04 -0.032 -0.110526 0 -0.024 -0.110526 0.008 -0.024 -0.110526
          0.016 -0.024 -0.110526 0.024 -0.024 -0.110526 0.032 -0.024 -0.110526 0.04 -0.024 -0.110526
          0 -0.016 -0.110526 0.008 -0.016 -0.110526 0.016 -0.016 -0.110526 0.024 -0.016 -0.110526
          0.032 -0.016 -0.110526 0.04 -0.016 -0.110526 0 -0.008 -0.110526 0.008 -0.008 -0.110526
          0.016 -0.008 -0.110526 0.024 -0.008 -0.110526 0.032 -0.008 -0.110526 0.04 -0.008 -0.110526
          0 0 -0.110526 0.008 0 -0.110526 0.016 0 -0.110526 0.024 0 -0.110526
          0.032 0 -0.110526 0.04 0 -0.110526 0 0.008 -0.110526 0.008 0.008 -0.110526
          0.016 0.008 -0.110526 0.024 0.008 -0.110526 0.032 0.008 -0.110526 0.04 0.008 -0.110526
          0 0.016 -0.110526 0.008 0.016 -0.110526 0.016 0.016 -0.110526 0.024 0.016 -0.110526
          0.032 0.016 -0.110526 0.04 0.016 -0.110526 0 0.024 -0.110526 0.008 0.024 -0.110526
          0.016 0.024 -0.110526 0.024 0.024 -0.110526 0.032 0.024 -0.110526 0.04 0.024 -0.110526
          0 0.032 -0.110526 0.008 0.032 -0.110526 0.016 0.032 -0.110526 0.024 0.032 -0.110526
          0.032 0.032 -0.110526 0.04 0.032 -0.110526 0 0.04 -0.110526 0.008 0.04 -0.110526
          0.016 0.04 -0.110526 0.024 0.04 -0.110526 0.032 0.04 -0.110526 0.04 0.04 -0.110526
          0 -0.04 -0.102632 0.008 -0.04 -0.102632 0 -0.032 -0.102632 0.008 -0.032 -0.102632
          0.016 -0.04 -0.102632 0.016 -0.032 -0.102632 0.024 -0.04 -0.102632 0.024 -0.032 -0.102632
          0.032 -0.04 -0.102632 0.032 -0.032 -0.102632 0.04 -0.04 -0.102632 0.04 -0.032 -0.102632
          0 -0.024 -0.102632 0.008 -0.024 -0.102632 0.016 -0.024 -0.102632 0.024 -0.024 -0.102632
          0.032 -0.024 -0.102632 0.04 -0.024 -0.102632 0 -0.016 -0.102632 0.008 -0.016 -0.102632
          0.016 -0.016 -0.102632 0.024 -0.016 -0.102632 0.032 -0.016 -0.102632 0.04 -0.016 -0.102632
          0 -0.008 -0.102632 0.008 -0.008 -0.102632 0.016 -0.008 -0.102632 0.024 -0.008 -0.102632
          0.032 -0.008 -0.102632 0.04 -0.008 -0.102632 0 0 -0.102632 0.008 0 -0.102632
          0.016 0 -0.102632 0.024 0 -0.102632 0.032 0 -0.102632 0.04 0 -0.102632
          0 0.008 -0.102632 0.008 0.008 -0.102632 0.016 0.008 -0.102632 0.024 0.008 -0.102632
          0.032 0.008 -0.102632 0.04 0.008 -0.102632 0 0.016 -0.102632 0.008 0.016 -0.102632
          0.016 0.016 -0.102632 0.024 0.016 -0.102632 0.032 0.016 -0.102632 0.04 0.016 -0.102632
          0 0.024 -0.102632 0.008 0.024 -0.102632 0.016 0.024 -0.102632 0.024 0.024 -0.102632
          0.032 0.024 -0.102632 0.04 0.024 -0.102632 0 0.032 -0.102632 0.008 0.032 -0.102632
          0.016 0.032 -0.102632 0.024 0.032 -0.102632 0.032 0.032 -0.102632 0.04 0.032 -0.102632
          0 0.04 -0.102632 0.008 0.04 -0.102632 0.016 0.04 -0.102632 0.024 0.04 -0.102632
          0.032 0.04 -0.102632 0.04 0.04 -0.102632 0 -0.04 -0.0947368 0.008 -0.04 -0.0947368
          0 -0.032 -0.0947368 0.008 -0.032 -0.0947368 0.016 -0.04 -0.0947368 0.016 -0.032 -0.0947368
          0.024 -0.04 -0.0947368 0.024 -0.032 -0.0947368 0.032 -0.04 -0.0947368 0.032 -0.032 -0.0947368
          0.04 -0.04 -0.0947368 0.04 -0.032 -0.0947368 0 -0.024 -0.0947368 0.008 -0.024 -0.0947368
          0.016 -0.024 -0.0947368 0.024 -0.024 -0.0947368 0.032 -0.024 -0.0947368 0.04 -0.024 -0.0947368
          0 -0.016 -0.0947368 0.008 -0.016 -0.0947368 0.016 -0.016 -0.0947368 0.024 -0.016 -0.0947368
          0.032 -0.016 -0.0947368 0.04 -0.016 -0.0947368 0 -0.008 -0.0947368 0.008 -0.008 -0.0947368
          0.016 -0.008 -0.0947368 0.024 -0.008 -0.0947368 0.032 -0.008 -0.0947368 0.04 -0.008 -0.0947368
          0 0 -0.0947368 0.008 0 -0.0947368 0.016 0 -0.0947368 0.024 0 -0.0947368
          0.032 0 -0.0947368 0.04 0 -0.0947368 0 0.008 -0.0947368 0.008 0.008 -0.0947368
          0.016 0.008 -0.0947368 0.024 0.008 -0.0947368 0.032 0.008 -0.0947368 0.04 0.008 -0.0947368
          0 0.016 -0.0947368 0.008 0.016 -0.0947368 0.016 0.016 -0.0947368 0.024 0.016 -0.0947368
          0.032 0.016 -0.0947368 0.04 0.016 -0.0947368 0 0.024 -0.0947368 0.008 0.024 -0.0947368
          0.016 0.024 -0.0947368 0.024 0.024 -0.0947368 0.032 0.024 -0.0947368 0.04 0.024 -0.0947368
          0 0.032 -0.0947368 0.008 0.032 -0.0947368 0.016 0.032 -0.0947368 0.024 0.032 -0.0947368
          0.032 0.032 -0.0947368 0.04 0.032 -0.0947368 0 0.04 -0.0947368 0.008 0.04 -0.0947368
          0.016 0.04 -0.0947368 0.024 0.04 -0.0947368 0.032 0.04 -0.0947368 0.04 0.04 -0.0947368
          0 -0.04 -0.0868421 0.008 -0.04 -0.0868421 0 -0.032 -0.0868421 0.008 -0.032 -0.0868421
          0.016 -0.04 -0.0868421 0.016 -0.032 -0.0868421 0.024 -0.04 -0.0868421 0.024 -0.032 -0.0868421
          0.032 -0.04 -0.0868421 0.032 -0.032 -0.0868421 0.04 -0.04 -0.0868421 0.04 -0.032 -0.0868421
          0 -0.024 -0.0868421 0.008 -0.024 -0.0868421 0.016 -0.024 -0.0868421 0.024 -0.024 -0.0868421
          0.032 -0.024 -0.0868421 0.04 -0.024 -0.0868421 0 -0.016 -0.0868421 0.008 -0.016 -0.0868421
          0.016 -0.016 -0.0868421 0.024 -0.016 -0.0868421 0.032 -0.016 -0.0868421 0.04 -0.016 -0.0868421
          0 -0.008 -0.0868421 0.008 -0.008 -0.0868421 0.016 -0.008 -0.0868421 0.024 -0.008 -0.0868421
          0.032 -0.008 -0.0868421 0.04 -0.008 -0.0868421 0 0 -0.0868421 0.008 0 -0.0868421
          0.016 0 -0.0868421 0.024 0 -0.0868421 0.032 0 -0.0868421 0.04 0 -0.0868421
          0 0.008 -0.0868421 0.008 0.008 -0.0868421 0.016 0.008 -0.0868421 0.024 0.008 -0.0868421
          0.032 0.008 -0.0868421 0.04 0.008 -0.0868421 0 0.016 -0.0868421 0.008 0.016 -0.0868421
          0.016 0.016 -0.0868421 0.024 0.016 -0.0868421 0.032 0.016 -0.0868421 0.04 0.016 -0.0868421
          0 0.024 -0.0868421 0.008 0.024 -0.0868421 0.016 0.024 -0.0868421 0.024 0.024 -0.0868421
          0.032 0.024 -0.0868421 0.04 0.024 -0.0868421 0 0.032 -0.0868421 0.008 0.032 -0.0868421
          0.016 0.032 -0.0868421 0.024 0.032 -0.0868421 0.032 0.032 -0.0868421 0.04 0.032 -0.0868421
          0 0.04 -0.0868421 0.008 0.04 -0.0868421 0.016 0.04 -0.0868421 0.024 0.04 -0.0868421
          0.032 0.04 -0.0868421 0.04 0.04 -0.0868421 0 -0.04 -0.0789474 0.008 -0.04 -0.0789474
          0 -0.032 -0.0789474 0.008 -0.032 -0.0789474 0.016 -0.04 -0.0789474 0.016 -0.032 -0.0789474
          0.024 -0.04 -0.0789474 0.024 -0.032 -0.0789474 0.032 -0.04 -0.0789474 0.032 -0.032 -0.0789474
          0.04 -0.04 -0.0789474 0.04 -0.032 -0.0789474 0 -0.024 -0.0789474 0.008 -0.024 -0.0789474
          0.016 -0.024 -0.0789474 0.024 -0.024 -0.0789474 0.032 -0.024 -0.0789474 0.04 -0.024 -0.0789474
          0 -0.016 -0.0789474 0.008 -0.016 -0.0789474 0.016 -0.016 -0.0789474 0.024 -0.016 -0.0789474
          0.032 -0.016 -0.0789474 0.04 -0.016 -0.0789474 0 -0.008 -0.0789474 0.008 -0.008 -0.0789474
          0.016 -0.008 -0.0789474 0.024 -0.008 -0.0789474 0.032 -0.008 -0.0789474 0.04 -0.008 -0.0789474
          0 0 -0.0789474 0.008 0 -0.0789474 0.016 0 -0.0789474 0.024 0 -0.0789474
          0.032 0 -0.0789474 0.04 0 -0.0789474 0 0.008 -0.0789474 0.008 0.008 -0.0789474
          0.016 0.008 -0.0789474 0.024 0.008 -0.0789474 0.032 0.008 -0.0789474 0.04 0.008 -0.0789474
          0 0.016 -0.0789474 0.008 0.016 -0.0789474 0.016 0.016 -0.0789474 0.024 0.016 -0.0789474
          0.032 0.016 -0.0789474 0.04 0.016 -0.0789474 0 0.024 -0.0789474 0.008 0.024 -0.0789474
          0.016 0.024 -0.0789474 0.024 0.024 -0.0789474 0.032 0.024 -0.0789474 0.04 0.024 -0.0789474
          0 0.032 -0.0789474 0.008 0.032 -0.0789474 0.016 0.032 -0.0789474 0.024 0.032 -0.0789474
          0.032 0.032 -0.0789474 0.04 0.032 -0.0789474 0 0.04 -0.0789474 0.008 0.04 -0.0789474
          0.016 0.04 -0.0789474 0.024 0.04 -0.0789474 0.032 0.04 -0.0789474 0.04 0.04 -0.0789474
        </DataArray>
      </Points>
      <Cells>
        <DataArray type="Int32" Name="connectivity" NumberOfComponents="1" format="ascii">
          0 1 3 2 4 5 7 6 1 8 9 3
          5 10 11 7 8 12 13 9 10 14 15 11
          12 16 17 13 14 18 19 15 16 20 21 17
          18 22 23 19 2 3 25 24 6 7 27 26
          3 9 28 25 7 11 29 27 9 13 30 28
          11 15 31 29 13 17 32 30 15 19 33 31
          17 21 34 32 19 23 35 33 24 25 37 36
          26 27 39 38 25 28 40 37 27 29 41 39
          28 30 42 40 29 31 43 41 30 32 44 42
          31 33 45 43 32 34 46 44 33 35 47 45
          36 37 49 48 38 39 51 50 37 40 52 49
          39 41 53 51 40 42 54 52 41 43 55 53
          42 44 56 54 43 45 57 55 44 46 58 56
          45 47 59 57 48 49 61 60 50 51 63 62
          49 52 64 61 51 53 65 63 52 54 66 64
          53 55 67 65 54 56 68 66 55 57 69 67
          56 58 70 68 57 59 71 69 60 61 73 72
          62 63 75 74 61 64 76 73 63 65 77 75
          64 66 78 76 65 67 79 77 66 68 80 78
          67 69 81 79 68 70 82 80 69 71 83 81
          72 73 85 84 74 75 87 86 73 76 88 85
          75 77 89 87 76 78 90 88 77 79 91 89
          78 80 92 90 79 81 93 91 80 82 94 92
          81 83 95 93 84 85 97 96 86 87 99 98
          85 88 100 97 87 89 101 99 88 90 102 100
          89 91 103 101 90 92 104 102 91 93 105 103
          92 94 106 104 93 95 107 105 96 97 109 108
          98 99 111 110 97 100 112 109 99 101 113 111
          100 102 114 112 101 103 115 113 102 104 116 114
          103 105 117 115 104 106 118 116 105 107 119 117
          108 109 121 120 110 111 123 122 109 112 124 121
          111 113 125 123 112 114 126 124 113 115 127 125
          114 116 128 126 115 117 129 127 116 118 130 128
          117 119 131 129 4 5 7 6 132 133 135 134
          5 10 11 7 133 136 137 135 10 14 15 11
          136 138 139 137 14 18 19 15 138 140 141 139
          18 22 23 19 140 142 143 141 6 7 27 26
          134 135 145 144 7 11 29 27 135 137 146 145
          11 15 31 29 137 139 147 146 15 19 33 31
          139 141 148 147 19 23 35 33 141 143 149 148
          26 27 39 38 144 145 151 150 27 29 41 39
          145 146 152 151 29 31 43 41 146 147 153 152
          31 33 45 43 147 148 154 153 33 35 47 45
          148 149 155 154 38 39 51 50 150 151 157 156
          39 41 53 51 151 152 158 157 41 43 55 53
          152 153 159 158 43 45 57 55 153 154 160 159
          45 47 59 57 154 155 161 160 50 51 63 62
          156 157 163 162 51 53 65 63 157 158 164 163
          53 55 67 65 158 159 165 164 55 57 69 67
          159 160 166 165 57 59 71 69 160 161 167 166
          62 63 75 74 162 163 169 168 63 65 77 75
          163 164 170 169 65 67 79 77 164 165 171 170
          67 69 81 79 165 166 172 171 69 71 83 81
          166 167 173 172 74 75 87 86 168 169 175 174
          75 77 89 87 169 170 176 175 77 79 91 89
          170 171 177 176 79 81 93 91 171 172 178 177
          81 83 95 93 172 173 179 178 86 87 99 98
          174 175 181 180 87 89 101 99 175 176 182 181
          89 91 103 101 176 177 183 182 91 93 105 103
          177 178 184 183 93 95 107 105 178 179 185 184
          98 99 111 110 180 181 187 186 99 101 113 111
          181 182 188 187 101 103 115 113 182 183 189 188
          103 105 117 115 183 184 190 189 105 107 119 117
          184 185 191 190 110 111 123 122 186 187 193 192
          111 113 125 123 187 188 194 193 113 115 127 125
          188 189 195 194 115 117 129 127 189 190 196 195
          117 119 131 129 190 191 197 196 132 133 135 134
          198 199 201 200 133 136 137 135 199 202 203 201
          136 138 139 137 202 204 205 203 138 140 141 139
          204 206 207 205 140 142 143 141 206 208 209 207
          134 135 145 144 200 201 211 210 135 137 146 145
          201 203 212 211 137 139 147 146 203 205 213 212
          139 141 148 147 205 207 214 213 141 143 149 148
          207 209 215 214 144 145 151 150 210 211 217 216
          145 146 152 151 211 212 218 217 146 147 153 152
          212 213 219 218 147 148 154 153 213 214 220 219
          148 149 155 154 214 215 221 220 150 151 157 156