<?xml version="1.0"?>
<VTKFile type="UnstructuredGrid" version="0.1" byte_order="LittleEndian">
  <UnstructuredGrid>
    <Piece NumberOfCells="500" NumberOfPoints="726">
      <CellData Scalars="p (Pa)">
        <DataArray type="Float32" Name="p (Pa)" NumberOfComponents="1" format="ascii">
          -828453 -853302 -852544 -805602 -776513 -897003 -908198 -874126 -815208 -781297 -1.05418e+06 -1.04035e+06
          -934048 -832213 -784479 -1.12149e+06 -1.14019e+06 -961441 -826470 -768247 -1.13061e+06 -1.04548e+06 -906138 -778481
          -723076 -1.02736e+06 -839030 -749709 -686019 -654236 -751004 -681189 -636377 -605576 -589410 -612909
          -586603 -564911 -549261 -540875 -544424 -534184 -523288 -514675 -509926 -515817 -510868 -504143
          -498336 -495036 -894413 -965319 -1.04648e+06 -920866 -865419 -960190 -1.01969e+06 -1.0207e+06 -918656 -866357
          -1.10395e+06 -1.15152e+06 -1.09388e+06 -922869 -859739 -1.12281e+06 -1.13444e+06 -991216 -870565 -814449 -1.1182e+06 -980687
          -858895 -779415 -740336 -857339 -786608 -726292 -683761 -661548 -687119 -658101 -629288 -607450
          -595622 -591336 -579504 -565529 -554134 -547780 -539183 -534517 -527423 -521081 -517419 -516091
          -514030 -509643 -505354 -502794 -939733 -1.05235e+06 -1.13874e+06 -1.01905e+06 -945659 -1.00055e+06 -1.10751e+06 -1.16222e+06
          -1.02428e+06 -955472 -1.1118e+06 -1.1589e+06 -1.11446e+06 -1.0169e+06 -959589 -1.12234e+06 -1.11508e+06 -1.00996e+06 -945315 -879355
          -963108 -911012 -845010 -799098 -765096 -766939 -744356 -711955 -685704 -669133 -645714 -636581
          -621006 -607099 -598716 -572995 -569700 -562219 -554922 -550503 -531435 -530762 -527115 -523107
          -520598 -512460 -512800 -510691 -508035 -506309 -952276 -1.0692e+06 -1.12394e+06 -1.03884e+06 -984594 -1.01934e+06
          -1.14013e+06 -1.17968e+06 -1.08762e+06 -1.02575e+06 -1.1128e+06 -1.16371e+06 -1.18937e+06 -1.1628e+06 -1.12114e+06 -1.12942e+06 -1.163e+06 -1.10136e+06
          -1.12387e+06 -969484 -916795 -897919 -859644 -837430 -791150 -731279 -724196 -706089 -689388 -674023
          -623429 -622112 -613947 -605035 -598619 -560089 -560923 -557479 -553037 -549987 -524016 -525669
          -524409 -522180 -520585 -507493 -509429 -509032 -507701 -506676 -932022 -1.02422e+06 -1.05991e+06 -1.00714e+06
          -966066 -994651 -1.11568e+06 -1.14931e+06 -1.05118e+06 -989156 -1.10471e+06 -1.14927e+06 -1.19957e+06 -1.10263e+06 -1.01049e+06 -1.16495e+06
          -1.12312e+06 -1.13104e+06 -1.11934e+06 -937672 -921986 -891188 -860771 -828363 -779431 -717665 -711404 -697250
          -681445 -666813 -610384 -611265 -606003 -599022 -593620 -550728 -553256 -551791 -548854 -546599
          -517505 -520327 -520430 -519290 -518285 -502399 -505240 -505911 -505461 -504920 -903341 -981192
          -1.01839e+06 -960500 -921284 -964177 -1.07743e+06 -1.13379e+06 -998714 -929620 -1.08269e+06 -1.19749e+06 -1.14268e+06 -996266
          -914830 -1.11951e+06 -1.14673e+06 -1.02513e+06 -921946 -847470 -876653 -860876 -812811 -770410 -739602 -695723
          -693220 -677645 -660984 -649212 -598118 -600326 -595694 -589213 -584571 -542830 -546084 -545368
          -543049 -541211 -511833 -515167 -515903 -515304 -514617 -497711 -500978 -502202 -502233 -501969
          -870652 -923508 -929189 -892169 -865653 -927552 -999027 -980885 -904356 -863121 -1.05104e+06 -1.1261e+06
          -1.00546e+06 -890834 -839718 -1.11892e+06 -1.0623e+06 -911297 -824583 -782466 -841418 -820097 -766795 -725932
          -703523 -677898 -675324 -658085 -641108 -630904 -588545 -590748 -585698 -579086 -574742 -536710
          -539991 -539283 -537035 -535320 -507287 -510701 -511583 -511143 -510567 -493819 -497192 -498601
          -498816 -498666 -844898 -875039 -865566 -838060 -819173 -901638 -926119 -888257 -839691 -812557
          -1.03335e+06 -1.02113e+06 -904088 -825124 -789386 -1.11852e+06 -1.00647e+06 -853939 -775360 -742085 -833283 -801249
          -740491 -698626 -678407 -672387 -665997 -645149 -626735 -616671 -584271 -584947 -578429 -571047
          -566547 -533162 -535846 -534589 -532026 -530215 -504221 -507409 -508112 -507577 -506975 -491002
          -494278 -495636 -495841 -495698 -832552 -848438 -830195 -804520 -788478 -907303 -903101 -848558
          -803998 -781141 -1.11823e+06 -1.04849e+06 -872786 -792376 -760102 -1.11809e+06 -1.11298e+06 -847737 -752860 -719360
          -860736 -817406 -732908 -684376 -663399 -681809 -667046 -639413 -618250 -607539 -585802 -583355
          -574462 -565887 -560991 -532241 -533840 -531702 -528633 -526623 -502669 -505458 -505822 -505079
          -504388 -489329 -492415 -493614 -493720 -493535 -819902 -830780 -812092 -788068 -773346 -878546
          -870238 -825130 -786226 -765815 -1.02334e+06 -946786 -838099 -773854 -745647 -1.12441e+06 -969545 -812080
          -737423 -707804 -918175 -803586 -721980 -676047 -655879 -699836 -667474 -635915 -613893 -603004
          -590110 -583429 -572662 -563357 -558223 -532781 -533251 -530400 -526970 -524818 -502217 -504654
          -504745 -503841 -503080 -488639 -491570 -492639 -492661 -492436
        </DataArray>
        <DataArray type="Float32" Name="saturation" NumberOfComponents="1" format="ascii">
          0.725541 0.724295 0.724333 0.72672 0.728268 0.722188 0.721664 0.723278 0.726221 0.72801 0.715364 0.715923
          0.720478 0.725351 0.727839 0.712747 0.712048 0.719257 0.725643 0.728718 0.712405 0.715715 0.72176 0.728162
          0.731264 0.716454 0.725007 0.729745 0.733469 0.735452 0.729672 0.733764 0.736607 0.738672 0.739796 0.738171
          0.739994 0.741554 0.742715 0.74335 0.74308 0.743863 0.744711 0.745392 0.745773 0.745301 0.745697 0.74624
          0.746714 0.746986 0.72231 0.719087 0.715674 0.721079 0.723701 0.719312 0.716771 0.716729 0.72118 0.723655
          0.713414 0.71163 0.713801 0.720987 0.723978 0.712698 0.712262 0.717968 0.72345 0.72626 0.712871 0.718419
          0.72402 0.728111 0.730274 0.724096 0.727724 0.731077 0.733607 0.734988 0.733401 0.735206 0.737074 0.738544
          0.739361 0.73966 0.740498 0.741509 0.742351 0.742827 0.743479 0.743837 0.744387 0.744884 0.745174 0.745279
          0.745444 0.745795 0.746142 0.74635 0.720222 0.715438 0.712102 0.716797 0.719956 0.717572 0.713278 0.711239
          0.716581 0.71952 0.713114 0.71136 0.713013 0.716886 0.719339 0.712715 0.71299 0.717176 0.719972 0.723026
          0.719184 0.721533 0.724707 0.727061 0.728891 0.72879 0.730046 0.731914 0.733488 0.734511 0.735999 0.736593
          0.737625 0.738568 0.739145 0.740966 0.741205 0.741752 0.742292 0.742622 0.744075 0.744127 0.744411 0.744725
          0.744922 0.745569 0.745542 0.745711 0.745925 0.746064 0.719662 0.714766 0.712655 0.715984 0.718251 0.716785
          0.712051 0.710609 0.714044 0.71652 0.713076 0.711185 0.710263 0.711218 0.712761 0.712449 0.711211 0.713513
          0.712658 0.718905 0.721266 0.722144 0.723983 0.725087 0.727482 0.73079 0.731199 0.732261 0.733263 0.734207
          0.737463 0.737551 0.738101 0.738709 0.739152 0.741909 0.741847 0.742102 0.742432 0.742661 0.744653 0.744524
          0.744623 0.744798 0.744923 0.745969 0.745813 0.745845 0.745952 0.746035 0.72057 0.716583 0.715135 0.717294
          0.719054 0.717822 0.712967 0.711712 0.715485 0.718056 0.713385 0.711713 0.709903 0.713464 0.717154 0.71114
          0.712686 0.712389 0.712829 0.720315 0.721027 0.722462 0.723928 0.725546 0.72811 0.731579 0.731946 0.732789
          0.733749 0.734656 0.738343 0.738283 0.738643 0.739124 0.7395 0.742605 0.742416 0.742525 0.742746 0.742916
          0.745167 0.744944 0.744936 0.745026 0.745105 0.746382 0.746151 0.746097 0.746133 0.746177 0.72189 0.718398
          0.716825 0.719298 0.72106 0.719137 0.714442 0.712286 0.717649 0.720679 0.714236 0.709976 0.711956 0.717753
          0.721357 0.712822 0.711806 0.716546 0.721029 0.724585 0.723156 0.723923 0.726345 0.7286 0.730315 0.73288
          0.733031 0.733983 0.735023 0.735774 0.739187 0.739034 0.739355 0.739809 0.740138 0.743201 0.742954 0.743009
          0.743184 0.743324 0.745619 0.745353 0.745294 0.745342 0.745397 0.746766 0.746498 0.746398 0.746396 0.746417
          0.723446 0.720958 0.720699 0.722416 0.723689 0.720773 0.717636 0.718411 0.721843 0.723813 0.715491 0.712574
          0.717365 0.722479 0.724972 0.712844 0.71504 0.72152 0.725739 0.727947 0.724887 0.725969 0.728798 0.731098
          0.732413 0.733967 0.734126 0.735207 0.736298 0.736967 0.739857 0.739702 0.740058 0.740528 0.74084 0.743668
          0.743417 0.743471 0.743643 0.743775 0.745985 0.74571 0.74564 0.745675 0.745721 0.747087 0.746809 0.746693
          0.746675 0.746687 0.724713 0.723234 0.723693 0.725055 0.726016 0.72197 0.720839 0.722601 0.724973 0.726358
          0.716208 0.716711 0.721855 0.725711 0.727576 0.712859 0.717322 0.724264 0.728331 0.730174 0.725296 0.726948
          0.730265 0.732706 0.733936 0.734308 0.734708 0.736036 0.737243 0.737917 0.740159 0.740111 0.740575 0.741107
          0.741435 0.743941 0.743735 0.743831 0.744029 0.74417 0.746234 0.745975 0.745919 0.745962 0.746011 0.747321
          0.747049 0.746937 0.74692 0.746932 0.725333 0.724536 0.725453 0.726777 0.727625 0.721705 0.721901 0.72453
          0.726804 0.728018 0.71287 0.715593 0.723343 0.727417 0.729166 0.712876 0.713069 0.724571 0.729569 0.73148
          0.723929 0.726107 0.730697 0.733569 0.734871 0.733726 0.734642 0.736408 0.73781 0.738537 0.74005 0.740224
          0.74086 0.741483 0.741842 0.744013 0.743889 0.744054 0.744293 0.744449 0.74636 0.746133 0.746104 0.746164
          0.74622 0.74746 0.747203 0.747104 0.747095 0.747111 0.725979 0.725423 0.726382 0.727646 0.72844 0.723065
          0.723466 0.725711 0.727745 0.728852 0.71662 0.719906 0.725053 0.728412 0.729973 0.712637 0.718902 0.726383
          0.730439 0.732159 0.721202 0.726825 0.731327 0.734081 0.735347 0.732633 0.734615 0.736637 0.738105 0.738849
          0.739746 0.740219 0.74099 0.741668 0.742047 0.743971 0.743935 0.744155 0.744422 0.74459 0.746397 0.746199
          0.746191 0.746265 0.746327 0.747518 0.747274 0.747185 0.747183 0.747202
        </DataArray>
        <DataArray type="Float32" Name="process rank" NumberOfComponents="1" format="ascii">
          3 3 3 3 3 3 3 3 3 3 3 3
          3 3 3 3 3 3 3 3 3 3 3 3
          3 3 3 3 3 3 3 3 3 3 3 3
          3 3 3 3 3 3 3 3 3 3 3 3
          3 3 3 3 3 3 3 3 3 3 3 3
          3 3 3 3 3 3 3 3 3 3 3 3
          3 3 3 3 3 3 3 3 3 3 3 3
          3 3 3 3 3 3 3 3 3 3 3 3
          3 3 3 3 3 3 3 3 3 3 3 3
          3 3 3 3 3 3 3 3 3 3 3 3
          3 3 3 3 3 3 3 3 3 3 3 3
          3 3 3 3 3 3 3 3 3 3 3 3
          3 3 3 3 3 3 3 3 3 3 3 3
          3 3 3 3 3 3 3 3 3 3 3 3
          3 3 3 3 3 3 3 3 3 3 3 3
          3 3 3 3 3 3 3 3 3 3 3 3
          3 3 3 3 3 3 3 3 3 3 3 3
          3 3 3 3 3 3 3 3 3 3 3 3
          3 3 3 3 3 3 3 3 3 3 3 3
          3 3 3 3 3 3 3 3 3 3 3 3
          3 3 3 3 3 3 3 3 3 3 3 3
          3 3 3 3 3 3 3 3 3 3 3 3
          3 3 3 3 3 3 3 3 3 3 3 3
          3 3 3 3 3 3 3 3 3 3 3 3
          3 3 3 3 3 3 3 3 3 3 3 3
          3 3 3 3 3 3 3 3 3 3 3 3
          3 3 3 3 3 3 3 3 3 3 3 3
          3 3 3 3 3 3 3 3 3 3 3 3
          3 3 3 3 3 3 3 3 3 3 3 3
          3 3 3 3 3 3 3 3 3 3 3 3
          3 3 3 3 3 3 3 3 3 3 3 3
          3 3 3 3 3 3 3 3 3 3 3 3
          3 3 3 3 3 3 3 3 3 3 3 3
          3 3 3 3 3 3 3 3 3 3 3 3
          3 3 3 3 3 3 3 3 3 3 3 3
          3 3 3 3 3 3 3 3 3 3 3 3
          3 3 3 3 3 3 3 3 3 3 3 3
          3 3 3 3 3 3 3 3 3 3 3 3
          3 3 3 3 3 3 3 3 3 3 3 3
          3 3 3 3 3 3 3 3 3 3 3 3
          3 3 3 3 3 3 3 3 3 3 3 3
          3 3 3 3 3 3 3 3
        </DataArray>
      </CellData>
      <Points>
        <DataArray type="Float32" Name="Coordinates" NumberOfComponents="3" format="ascii">
          0 -0.04 -0.0789474 0.008 -0.04 -0.0789474 0 -0.032 -0.0789474 0.008 -0.032 -0.0789474
          0 -0.04 -0.0710526 0.008 -0.04 -0.0710526 0 -0.032 -0.0710526 0.008 -0.032 -0.0710526
          0.016 -0.04 -0.0789474 0.016 -0.032 -0.0789474 0.016 -0.04 -0.0710526 0.016 -0.032 -0.0710526
          0.024 -0.04 -0.0789474 0.024 -0.032 -0.0789474 0.024 -0.04 -0.0710526 0.024 -0.032 -0.0710526
          0.032 -0.04 -0.0789474 0.032 -0.032 -0.0789474 0.032 -0.04 -0.0710526 0.032 -0.032 -0.0710526
          0.04 -0.04 -0.0789474 0.04 -0.032 -0.0789474 0.04 -0.04 -0.0710526 0.04 -0.032 -0.0710526
          0 -0.024 -0.0789474 0.008 -0.024 -0.0789474 0 -0.024 -0.0710526 0.008 -0.024 -0.0710526
          0.016 -0.024 -0.0789474 0.016 -0.024 -0.0710526 0.024 -0.024 -0.0789474 0.024 -0.024 -0.0710526
          0.032 -0.024 -0.0789474 0.032 -0.024 -0.0710526 0.04 -0.024 -0.0789474 0.04 -0.024 -0.0710526
          0 -0.016 -0.0789474 0.008 -0.016 -0.0789474 0 -0.016 -0.0710526 0.008 -0.016 -0.0710526
          0.016 -0.016 -0.0789474 0.016 -0.016 -0.0710526 0.024 -0.016 -0.0789474 0.024 -0.016 -0.0710526
          0.032 -0.016 -0.0789474 0.032 -0.016 -0.0710526 0.04 -0.016 -0.0789474 0.04 -0.016 -0.0710526
          0 -0.008 -0.0789474 0.008 -0.008 -0.0789474 0 -0.008 -0.0710526 0.008 -0.008 -0.0710526
          0.016 -0.008 -0.0789474 0.016 -0.008 -0.0710526 0.024 -0.008 -0.0789474 0.024 -0.008 -0.0710526
          0.032 -0.008 -0.0789474 0.032 -0.008 -0.0710526 0.04 -0.008 -0.0789474 0.04 -0.008 -0.0710526
          0 0 -0.0789474 0.008 0 -0.0789474 0 0 -0.0710526 0.008 0 -0.0710526
          0.016 0 -0.0789474 0.016 0 -0.0710526 0.024 0 -0.0789474 0.024 0 -0.0710526
          0.032 0 -0.0789474 0.032 0 -0.0710526 0.04 0 -0.0789474 0.04 0 -0.0710526
          0 0.008 -0.0789474 0.008 0.008 -0.0789474 0 0.008 -0.0710526 0.008 0.008 -0.0710526
          0.016 0.008 -0.0789474 0.016 0.008 -0.0710526 0.024 0.008 -0.0789474 0.024 0.008 -0.0710526
          0.032 0.008 -0.0789474 0.032 0.008 -0.0710526 0.04 0.008 -0.0789474 0.04 0.008 -0.0710526
          0 0.016 -0.0789474 0.008 0.016 -0.0789474 0 0.016 -0.0710526 0.008 0.016 -0.0710526
          0.016 0.016 -0.0789474 0.016 0.016 -0.0710526 0.024 0.016 -0.0789474 0.024 0.016 -0.0710526
          0.032 0.016 -0.0789474 0.032 0.016 -0.0710526 0.04 0.016 -0.0789474 0.04 0.016 -0.0710526
          0 0.024 -0.0789474 0.008 0.024 -0.0789474 0 0.024 -0.0710526 0.008 0.024 -0.0710526
          0.016 0.024 -0.0789474 0.016 0.024 -0.0710526 0.024 0.024 -0.0789474 0.024 0.024 -0.0710526
          0.032 0.024 -0.0789474 0.032 0.024 -0.0710526 0.04 0.024 -0.0789474 0.04 0.024 -0.0710526
          0 0.032 -0.0789474 0.008 0.032 -0.0789474 0 0.032 -0.0710526 0.008 0.032 -0.0710526
          0.016 0.032 -0.0789474 0.016 0.032 -0.0710526 0.024 0.032 -0.0789474 0.024 0.032 -0.0710526
          0.032 0.032 -0.0789474 0.032 0.032 -0.0710526 0.04 0.032 -0.0789474 0.04 0.032 -0.0710526
          0 0.04 -0.0789474 0.008 0.04 -0.0789474 0 0.04 -0.0710526 0.008 0.04 -0.0710526
          0.016 0.04 -0.0789474 0.016 0.04 -0.0710526 0.024 0.04 -0.0789474 0.024 0.04 -0.0710526
          0.032 0.04 -0.0789474 0.032 0.04 -0.0710526 0.04 0.04 -0.0789474 0.04 0.04 -0.0710526
          0 -0.04 -0.0631579 0.008 -0.04 -0.0631579 0 -0.032 -0.0631579 0.008 -0.032 -0.0631579
          0.016 -0.04 -0.0631579 0.016 -0.032 -0.0631579 0.024 -0.04 -0.0631579 0.024 -0.032 -0.0631579
          0.032 -0.04 -0.0631579 0.032 -0.032 -0.0631579 0.04 -0.04 -0.0631579 0.04 -0.032 -0.0631579
          0 -0.024 -0.0631579 0.008 -0.024 -0.0631579 0.016 -0.024 -0.0631579 0.024 -0.024 -0.0631579
          0.032 -0.024 -0.0631579 0.04 -0.024 -0.0631579 0 -0.016 -0.0631579 0.008 -0.016 -0.0631579
          0.016 -0.016 -0.0631579 0.024 -0.016 -0.0631579 0.032 -0.016 -0.0631579 0.04 -0.016 -0.0631579
          0 -0.008 -0.0631579 0.008 -0.008 -0.0631579 0.016 -0.008 -0.0631579 0.024 -0.008 -0.0631579
          0.032 -0.008 -0.0631579 0.04 -0.008 -0.0631579 0 0 -0.0631579 0.008 0 -0.0631579
          0.016 0 -0.0631579 0.024 0 -0.0631579 0.032 0 -0.0631579 0.04 0 -0.0631579
          0 0.008 -0.0631579 0.008 0.008 -0.0631579 0.016 0.008 -0.0631579 0.024 0.008 -0.0631579
          0.032 0.008 -0.0631579 0.04 0.008 -0.0631579 0 0.016 -0.0631579 0.008 0.016 -0.0631579
          0.016 0.016 -0.0631579 0.024 0.016 -0.0631579 0.032 0.016 -0.0631579 0.04 0.016 -0.0631579
          0 0.024 -0.0631579 0.008 0.024 -0.0631579 0.016 0.024 -0.0631579 0.024 0.024 -0.0631579
          0.032 0.024 -0.0631579 0.04 0.024 -0.0631579 0 0.032 -0.0631579 0.008 0.032 -0.0631579
          0.016 0.032 -0.0631579 0.024 0.032 -0.0631579 0.032 0.032 -0.0631579 0.04 0.032 -0.0631579
          0 0.04 -0.0631579 0.008 0.04 -0.0631579 0.016 0.04 -0.0631579 0.024 0.04 -0.0631579
          0.032 0.04 -0.0631579 0.04 0.04 -0.0631579 0 -0.04 -0.0552632 0.008 -0.04 -0.0552632
          0 -0.032 -0.0552632 0.008 -0.032 -0.0552632 0.016 -0.04 -0.0552632 0.016 -0.032 -0.0552632
          0.024 -0.04 -0.0552632 0.024 -0.032 -0.0552632 0.032 -0.04 -0.0552632 0.032 -0.032 -0.0552632
          0.04 -0.04 -0.0552632 0.04 -0.032 -0.0552632 0 -0.024 -0.0552632 0.008 -0.024 -0.0552632
          0.016 -0.024 -0.0552632 0.024 -0.024 -0.0552632 0.032 -0.024 -0.0552632 0.04 -0.024 -0.0552632
          0 -0.016 -0.0552632 0.008 -0.016 -0.0552632 0.016 -0.016 -0.0552632 0.024 -0.016 -0.0552632
          0.032 -0.016 -0.0552632 0.04 -0.016 -0.0552632 0 -0.008 -0.0552632 0.008 -0.008 -0.0552632
          0.016 -0.008 -0.0552632 0.024 -0.008 -0.0552632 0.032 -0.008 -0.0552632 0.04 -0.008 -0.0552632
          0 0 -0.0552632 0.008 0 -0.0552632 0.016 0 -0.0552632 0.024 0 -0.0552632
          0.032 0 -0.0552632 0.04 0 -0.0552632 0 0.008 -0.0552632 0.008 0.008 -0.0552632
          0.016 0.008 -0.0552632 0.024 0.008 -0.0552632 0.032 0.008 -0.0552632 0.04 0.008 -0.0552632
          0 0.016 -0.0552632 0.008 0.016 -0.0552632 0.016 0.016 -0.0552632 0.024 0.016 -0.0552632
          0.032 0.016 -0.0552632 0.04 0.016 -0.0552632 0 0.024 -0.0552632 0.008 0.024 -0.0552632
          0.016 0.024 -0.0552632 0.024 0.024 -0.0552632 0.032 0.024 -0.0552632 0.04 0.024 -0.0552632
          0 0.032 -0.0552632 0.008 0.032 -0.0552632 0.016 0.032 -0.0552632 0.024 0.032 -0.0552632
          0.032 0.032 -0.0552632 0.04 0.032 -0.0552632 0 0.04 -0.0552632 0.008 0.04 -0.0552632
          0.016 0.04 -0.0552632 0.024 0.04 -0.0552632 0.032 0.04 -0.0552632 0.04 0.04 -0.0552632
          0 -0.04 -0.0473684 0.008 -0.04 -0.0473684 0 -0.032 -0.0473684 0.008 -0.032 -0.0473684
          0.016 -0.04 -0.0473684 0.016 -0.032 -0.0473684 0.024 -0.04 -0.0473684 0.024 -0.032 -0.0473684
          0.032 -0.04 -0.0473684 0.032 -0.032 -0.0473684 0.04 -0.04 -0.0473684 0.04 -0.032 -0.0473684
          0 -0.024 -0.0473684 0.008 -0.024 -0.0473684 0.016 -0.024 -0.0473684 0.024 -0.024 -0.0473684
          0.032 -0.024 -0.0473684 0.04 -0.024 -0.0473684 0 -0.016 -0.0473684 0.008 -0.016 -0.0473684
          0.016 -0.016 -0.0473684 0.024 -0.016 -0.0473684 0.032 -0.016 -0.0473684 0.04 -0.016 -0.0473684
          0 -0.008 -0.0473684 0.008 -0.008 -0.0473684 0.016 -0.008 -0.0473684 0.024 -0.008 -0.0473684
          0.032 -0.008 -0.0473684 0.04 -0.008 -0.0473684 0 0 -0.0473684 0.008 0 -0.0473684
          0.016 0 -0.0473684 0.024 0 -0.0473684 0.032 0 -0.0473684 0.04 0 -0.0473684
          0 0.008 -0.0473684 0.008 0.008 -0.0473684 0.016 0.008 -0.0473684 0.024 0.008 -0.0473684
          0.032 0.008 -0.0473684 0.04 0.008 -0.0473684 0 0.016 -0.0473684 0.008 0.016 -0.0473684
          0.016 0.016 -0.0473684 0.024 0.016 -0.0473684 0.032 0.016 -0.0473684 0.04 0.016 -0.0473684
          0 0.024 -0.0473684 0.008 0.024 -0.0473684 0.016 0.024 -0.0473684 0.024 0.024 -0.0473684
          0.032 0.024 -0.0473684 0.04 0.024 -0.0473684 0 0.032 -0.0473684 0.008 0.032 -0.0473684
          0.016 0.032 -0.0473684 0.024 0.032 -0.0473684 0.032 0.032 -0.0473684 0.04 0.032 -0.0473684
          0 0.04 -0.0473684 0.008 0.04 -0.0473684 0.016 0.04 -0.0473684 0.024 0.04 -0.0473684
          0.032 0.04 -0.0473684 0.04 0.04 -0.0473684 0 -0.04 -0.0394737 0.008 -0.04 -0.0394737
          0 -0.032 -0.0394737 0.008 -0.032 -0.0394737 0.016 -0.04 -0.0394737 0.016 -0.032 -0.0394737
          0.024 -0.04 -0.0394737 0.024 -0.032 -0.0394737 0.032 -0.04 -0.0394737 0.032 -0.032 -0.0394737
          0.04 -0.04 -0.0394737 0.04 -0.032 -0.0394737 0 -0.024 -0.0394737 0.008 -0.024 -0.0394737
          0.016 -0.024 -0.0394737 0.024 -0.024 -0.0394737 0.032 -0.024 -0.0394737 0.04 -0.024 -0.0394737
          0 -0.016 -0.0394737 0.008 -0.016 -0.0394737 0.016 -0.016 -0.0394737 0.024 -0.016 -0.0394737
          0.032 -0.016 -0.0394737 0.04 -0.016 -0.0394737 0 -0.008 -0.0394737 0.008 -0.008 -0.0394737
          0.016 -0.008 -0.0394737 0.024 -0.008 -0.0394737 0.032 -0.008 -0.0394737 0.04 -0.008 -0.0394737
          0 0 -0.0394737 0.008 0 -0.0394737 0.016 0 -0.0394737 0.024 0 -0.0394737
          0.032 0 -0.0394737 0.04 0 -0.0394737 0 0.008 -0.0394737 0.008 0.008 -0.0394737
          0.016 0.008 -0.0394737 0.024 0.008 -0.0394737 0.032 0.008 -0.0394737 0.04 0.008 -0.0394737
          0 0.016 -0.0394737 0.008 0.016 -0.0394737 0.016 0.016 -0.0394737 0.024 0.016 -0.0394737
          0.032 0.016 -0.0394737 0.04 0.016 -0.0394737 0 0.024 -0.0394737 0.008 0.024 -0.0394737
          0.016 0.024 -0.0394737 0.024 0.024 -0.0394737 0.032 0.024 -0.0394737 0.04 0.024 -0.0394737
          0 0.032 -0.0394737 0.008 0.032 -0.0394737 0.016 0.032 -0.0394737 0.024 0.032 -0.0394737
          0.032 0.032 -0.0394737 0.04 0.032 -0.0394737 0 0.04 -0.0394737 0.008 0.04 -0.0394737
          0.016 0.04 -0.0394737 0.024 0.04 -0.0394737 0.032 0.04 -0.0394737 0.04 0.04 -0.0394737
          0 -0.04 -0.0315789 0.008 -0.04 -0.0315789 0 -0.032 -0.0315789 0.008 -0.032 -0.0315789
          0.016 -0.04 -0.0315789 0.016 -0.032 -0.0315789 0.024 -0.04 -0.0315789 0.024 -0.032 -0.0315789
          0.032 -0.04 -0.0315789 0.032 -0.032 -0.0315789 0.04 -0.04 -0.0315789 0.04 -0.032 -0.0315789
          0 -0.024 -0.0315789 0.008 -0.024 -0.0315789 0.016 -0.024 -0.0315789 0.024 -0.024 -0.0315789
          0.032 -0.024 -0.0315789 0.04 -0.024 -0.0315789 0 -0.016 -0.0315789 0.008 -0.016 -0.0315789
          0.016 -0.016 -0.0315789 0.024 -0.016 -0.0315789 0.032 -0.016 -0.0315789 0.04 -0.016 -0.0315789
          0 -0.008 -0.0315789 0.008 -0.008 -0.0315789 0.016 -0.008 -0.0315789 0.024 -0.008 -0.0315789
          0.032 -0.008 -0.0315789 0.04 -0.008 -0.0315789 0 0 -0.0315789 0.008 0 -0.0315789
          0.016 0 -0.0315789 0.024 0 -0.0315789 0.032 0 -0.0315789 0.04 0 -0.0315789
          0 0.008 -0.0315789 0.008 0.008 -0.0315789 0.016 0.008 -0.0315789 0.024 0.008 -0.0315789
          0.032 0.008 -0.0315789 0.04 0.008 -0.0315789 0 0.016 -0.0315789 0.008 0.016 -0.0315789
          0.016 0.016 -0.0315789 0.024 0.016 -0.0315789 0.032 0.016 -0.0315789 0.04 0.016 -0.0315789
          0 0.024 -0.0315789 0.008 0.024 -0.0315789 0.016 0.024 -0.0315789 0.024 0.024 -0.0315789
          0.032 0.024 -0.0315789 0.04 0.024 -0.0315789 0 0.032 -0.0315789 0.008 0.032 -0.0315789
          0.016 0.032 -0.0315789 0.024 0.032 -0.0315789 0.032 0.032 -0.0315789 0.04 0.032 -0.0315789
          0 0.04 -0.0315789 0.008 0.04 -0.0315789 0.016 0.04 -0.0315789 0.024 0.04 -0.0315789
          0.032 0.04 -0.0315789 0.04 0.04 -0.0315789 0 -0.04 -0.0236842 0.008 -0.04 -0.0236842
          0 -0.032 -0.0236842 0.008 -0.032 -0.0236842 0.016 -0.04 -0.0236842 0.016 -0.032 -0.0236842
          0.024 -0.04 -0.0236842 0.024 -0.032 -0.0236842 0.032 -0.04 -0.0236842 0.032 -0.032 -0.0236842
          0.04 -0.04 -0.0236842 0.04 -0.032 -0.0236842 0 -0.024 -0.0236842 0.008 -0.024 -0.0236842
          0.016 -0.024 -0.0236842 0.024 -0.024 -0.0236842 0.032 -0.024 -0.0236842 0.04 -0.024 -0.0236842
          0 -0.016 -0.0236842 0.008 -0.016 -0.0236842 0.016 -0.016 -0.0236842 0.024 -0.016 -0.0236842
          0.032 -0.016 -0.0236842 0.04 -0.016 -0.0236842 0 -0.008 -0.0236842 0.008 -0.008 -0.0236842
          0.016 -0.008 -0.0236842 0.024 -0.008 -0.0236842 0.032 -0.008 -0.0236842 0.04 -0.008 -0.0236842
          0 0 -0.0236842 0.008 0 -0.0236842 0.016 0 -0.0236842 0.024 0 -0.0236842
          0.032 0 -0.0236842 0.04 0 -0.0236842 0 0.008 -0.0236842 0.008 0.008 -0.0236842
          0.016 0.008 -0.0236842 0.024 0.008 -0.0236842 0.032 0.008 -0.0236842 0.04 0.008 -0.0236842
          0 0.016 -0.0236842 0.008 0.016 -0.0236842 0.016 0.016 -0.0236842 0.024 0.016 -0.0236842
          0.032 0.016 -0.0236842 0.04 0.016 -0.0236842 0 0.024 -0.0236842 0.008 0.024 -0.0236842
          0.016 0.024 -0.0236842 0.024 0.024 -0.0236842 0.032 0.024 -0.0236842 0.04 0.024 -0.0236842
          0 0.032 -0.0236842 0.008 0.032 -0.0236842 0.016 0.032 -0.0236842 0.024 0.032 -0.0236842
          0.032 0.032 -0.0236842 0.04 0.032 -0.0236842 0 0.04 -0.0236842 0.008 0.04 -0.0236842
          0.016 0.04 -0.0236842 0.024 0.04 -0.0236842 0.032 0.04 -0.0236842 0.04 0.04 -0.0236842
          0 -0.04 -0.0157895 0.008 -0.04 -0.0157895 0 -0.032 -0.0157895 0.008 -0.032 -0.0157895
          0.016 -0.04 -0.0157895 0.016 -0.032 -0.0157895 0.024 -0.04 -0.0157895 0.024 -0.032 -0.0157895
          0.032 -0.04 -0.0157895 0.032 -0.032 -0.0157895 0.04 -0.04 -0.0157895 0.04 -0.032 -0.0157895
          0 -0.024 -0.0157895 0.008 -0.024 -0.0157895 0.016 -0.024 -0.0157895 0.024 -0.024 -0.0157895
          0.032 -0.024 -0.0157895 0.04 -0.024 -0.0157895 0 -0.016 -0.0157895 0.008 -0.016 -0.0157895
          0.016 -0.016 -0.0157895 0.024 -0.016 -0.0157895 0.032 -0.016 -0.0157895 0.04 -0.016 -0.0157895
          0 -0.008 -0.0157895 0.008 -0.008 -0.0157895 0.016 -0.008 -0.0157895 0.024 -0.008 -0.0157895
          0.032 -0.008 -0.0157895 0.04 -0.008 -0.0157895 0 0 -0.0157895 0.008 0 -0.0157895
          0.016 0 -0.0157895 0.024 0 -0.0157895 0.032 0 -0.0157895 0.04 0 -0.0157895
          0 0.008 -0.0157895 0.008 0.008 -0.0157895 0.016 0.008 -0.0157895 0.024 0.008 -0.0157895
          0.032 0.008 -0.0157895 0.04 0.008 -0.0157895 0 0.016 -0.0157895 0.008 0.016 -0.0157895
          0.016 0.016 -0.0157895 0.024 0.016 -0.0157895 0.032 0.016 -0.0157895 0.04 0.016 -0.0157895
          0 0.024 -0.0157895 0.008 0.024 -0.0157895 0.016 0.024 -0.0157895 0.024 0.024 -0.0157895
          0.032 0.024 -0.0157895 0.04 0.024 -0.0157895 0 0.032 -0.0157895 0.008 0.032 -0.0157895
          0.016 0.032 -0.0157895 0.024 0.032 -0.0157895 0.032 0.032 -0.0157895 0.04 0.032 -0.0157895
          0 0.04 -0.0157895 0.008 0.04 -0.0157895 0.016 0.04 -0.0157895 0.024 0.04 -0.0157895
          0.032 0.04 -0.0157895 0.04 0.04 -0.0157895 0 -0.04 -0.00789474 0.008 -0.04 -0.00789474
          0 -0.032 -0.00789474 0.008 -0.032 -0.00789474 0.016 -0.04 -0.00789474 0.016 -0.032 -0.00789474
          0.024 -0.04 -0.00789474 0.024 -0.032 -0.00789474 0.032 -0.04 -0.00789474 0.032 -0.032 -0.00789474
          0.04 -0.04 -0.00789474 0.04 -0.032 -0.00789474 0 -0.024 -0.00789474 0.008 -0.024 -0.00789474
          0.016 -0.024 -0.00789474 0.024 -0.024 -0.00789474 0.032 -0.024 -0.00789474 0.04 -0.024 -0.00789474
          0 -0.016 -0.00789474 0.008 -0.016 -0.00789474 0.016 -0.016 -0.00789474 0.024 -0.016 -0.00789474
          0.032 -0.016 -0.00789474 0.04 -0.016 -0.00789474 0 -0.008 -0.00789474 0.008 -0.008 -0.00789474
          0.016 -0.008 -0.00789474 0.024 -0.008 -0.00789474 0.032 -0.008 -0.00789474 0.04 -0.008 -0.00789474
          0 0 -0.00789474 0.008 0 -0.00789474 0.016 0 -0.00789474 0.024 0 -0.00789474
          0.032 0 -0.00789474 0.04 0 -0.00789474 0 0.008 -0.00789474 0.008 0.008 -0.00789474
          0.016 0.008 -0.00789474 0.024 0.008 -0.00789474 0.032 0.008 -0.00789474 0.04 0.008 -0.00789474
          0 0.016 -0.00789474 0.008 0.016 -0.00789474 0.016 0.016 -0.00789474 0.024 0.016 -0.00789474
          0.032 0.016 -0.00789474 0.04 0.016 -0.00789474 0 0.024 -0.00789474 0.008 0.024 -0.00789474
          0.016 0.024 -0.00789474 0.024 0.024 -0.00789474 0.032 0.024 -0.00789474 0.04 0.024 -0.00789474
          0 0.032 -0.00789474 0.008 0.032 -0.00789474 0.016 0.032 -0.00789474 0.024 0.032 -0.00789474
          0.032 0.032 -0.00789474 0.04 0.032 -0.00789474 0 0.04 -0.00789474 0.008 0.04 -0.00789474
          0.016 0.04 -0.00789474 0.024 0.04 -0.00789474 0.032 0.04 -0.00789474 0.04 0.04 -0.00789474
          0 -0.04 3.46945e-18 0.008 -0.04 3.46945e-18 0 -0.032 3.46945e-18 0.008 -0.032 3.46945e-18
          0.016 -0.04 3.46945e-18 0.016 -0.032 3.46945e-18 0.024 -0.04 3.46945e-18 0.024 -0.032 3.46945e-18
          0.032 -0.04 3.46945e-18 0.032 -0.032 3.46945e-18 0.04 -0.04 3.46945e-18 0.04 -0.032 3.46945e-18
          0 -0.024 3.46945e-18 0.008 -0.024 3.46945e-18 0.016 -0.024 3.46945e-18 0.024 -0.024 3.46945e-18
          0.032 -0.024 3.46945e-18 0.04 -0.024 3.46945e-18 0 -0.016 3.46945e-18 0.008 -0.016 3.46945e-18
          0.016 -0.016 3.46945e-18 0.024 -0.016 3.46945e-18 0.032 -0.016 3.46945e-18 0.04 -0.016 3.46945e-18
          0 -0.008 3.46945e-18 0.008 -0.008 3.46945e-18 0.016 -0.008 3.46945e-18 0.024 -0.008 3.46945e-18
          0.032 -0.008 3.46945e-18 0.04 -0.008 3.46945e-18 0 0 3.46945e-18 0.008 0 3.46945e-18
          0.016 0 3.46945e-18 0.024 0 3.46945e-18 0.032 0 3.46945e-18 0.04 0 3.46945e-18
          0 0.008 3.46945e-18 0.008 0.008 3.46945e-18 0.016 0.008 3.46945e-18 0.024 0.008 3.46945e-18
          0.032 0.008 3.46945e-18 0.04 0.008 3.46945e-18 0 0.016 3.46945e-18 0.008 0.016 3.46945e-18
          0.016 0.016 3.46945e-18 0.024 0.016 3.46945e-18 0.032 0.016 3.46945e-18 0.04 0.016 3.46945e-18
          0 0.024 3.46945e-18 0.008 0.024 3.46945e-18 0.016 0.024 3.46945e-18 0.024 0.024 3.46945e-18
          0.032 0.024 3.46945e-18 0.04 0.024 3.46945e-18 0 0.032 3.46945e-18 0.008 0.032 3.46945e-18
          0.016 0.032 3.46945e-18 0.024 0.032 3.46945e-18 0.032 0.032 3.46945e-18 0.04 0.032 3.46945e-18
          0 0.04 3.46945e-18 0.008 0.04 3.46945e-18 0.016 0.04 3.46945e-18 0.024 0.04 3.46945e-18
          0.032 0.04 3.46945e-18 0.04 0.04 3.46945e-18
        </DataArray>
      </Points>
      <Cells>
        <DataArray type="Int32" Name="connectivity" NumberOfComponents="1" format="ascii">
          0 1 3 2 4 5 7 6 1 8 9 3
          5 10 11 7 8 12 13 9 10 14 15 11