<?xml version="1.0"?>
<VTKFile type="UnstructuredGrid" version="0.1" byte_order="LittleEndian">
  <UnstructuredGrid>
    <Piece NumberOfCells="500" NumberOfPoints="726">
      <CellData Scalars="p (Pa)">
        <DataArray type="Float32" Name="p (Pa)" NumberOfComponents="1" format="ascii">
          -590542 -615212 -662682 -721540 -780502 -594618 -626617 -692526 -767938 -839198 -596365 -639824
          -745878 -854001 -954371 -584736 -622377 -707090 -833305 -1.01144e+06 -566095 -598822 -673946 -811880
          -1.04863e+06 -544276 -573903 -645422 -794657 -1.10671e+06 -520508 -545472 -606184 -724171 -810894 -496722
          -513273 -548426 -599460 -629153 -478280 -488693 -508486 -532550 -547003 -468473 -476044 -489609
          -504918 -514899 -616979 -645987 -702767 -767407 -829643 -622476 -664915 -764395 -847190 -898832
          -625508 -697077 -1.01234e+06 -1.10584e+06 -1.05801e+06 -606163 -652144 -766462 -898137 -1.05389e+06 -579663 -611592
          -681918 -792070 -954960 -551786 -576169 -628992 -715457 -829250 -524661 -542965 -581291 -637960
          -686629 -500535 -512929 -537030 -568010 -590393 -482726 -491022 -506182 -524003 -536688 -473397
          -479744 -490965 -503674 -513034 -628928 -656178 -709058 -776641 -852557 -631620 -666652 -739261
          -823993 -911876 -629750 -676601 -792115 -915213 -1.05229e+06 -611043 -649502 -737519 -879224 -1.12038e+06
          -582964 -611118 -671715 -767976 -896455 -552519 -572570 -613656 -674048 -739841 -523962 -537922
          -565192 -601665 -634421 -500088 -509519 -527070 -548720 -566439 -483115 -489671 -501439 -515277
          -526442 -474361 -479567 -488742 -499334 -508008 -630027 -654372 -702376 -769821 -852632 -630033
          -658688 -717139 -799576 -898802 -625007 -659636 -736286 -852066 -985778 -607949 -641807 -722265
          -875897 -1.04851e+06 -580516 -606624 -665210 -766356 -878880 -549549 -567295 -603778 -657293 -710223
          -520772 -532399 -554764 -584174 -610933 -497420 -505101 -519232 -536661 -551949 -481207 -486604
          -496275 -507838 -517971 -472948 -477313 -485044 -494191 -502298 -625277 -647398 -691928 -757517
          -839161 -623792 -649136 -702335 -784582 -883155 -617501 -648141 -720057 -854341 -985705 -601693
          -635381 -731545 -1.04764e+06 -1.13666e+06 -575183 -601078 -666645 -824602 -1.0045e+06 -544649 -561322 -597160
          -654808 -710541 -516387 -526775 -546997 -574255 -599230 -493754 -500439 -512790 -528255 -542339
          -478226 -482907 -491343 -501621 -511093 -470373 -474181 -480979 -489200 -496877 -617922 -638122
          -679122 -740601 -818394 -615421 -637935 -685272 -759948 -857357 -608004 -634076 -693269 -799584
          -949824 -592273 -619838 -688848 -843128 -1.11298e+06 -567297 -589148 -639707 -733048 -849883 -538455
          -553070 -583484 -629247 -676308 -511505 -520777 -538682 -562604 -585449 -489840 -495847 -506958
          -520980 -534188 -474977 -479205 -486861 -496315 -505313 -467468 -470922 -477127 -484750 -492098
          -610378 -629048 -666985 -724048 -796147 -607233 -627544 -670005 -737012 -827219 -599037 -621523
          -670896 -756023 -885758 -583313 -605998 -657891 -755140 -921734 -559795 -578301 -618593 -685600
          -773856 -532716 -545675 -571981 -610333 -652007 -507119 -515607 -531896 -553605 -575085 -486354
          -491943 -502293 -515432 -528079 -472042 -476003 -483201 -492164 -500837 -464799 -468042 -473896
          -481153 -488256 -604301 -622073 -658218 -712573 -780360 -600947 -620143 -660334 -724162 -810963
          -592598 -613561 -659442 -739057 -865962 -577218 -598137 -645200 -731565 -884401 -554767 -572248
          -610244 -673994 -762668 -528801 -541325 -566905 -604814 -647372 -504021 -512312 -528328 -549934
          -571547 -483788 -489250 -499414 -512406 -524927 -469798 -473653 -480683 -489471 -497980 -462710
          -465855 -471547 -478626 -485573 -600396 -617864 -653486 -707140 -773382 -597165 -616220 -656509
          -721689 -812642 -589161 -610362 -657868 -744605 -896617 -574393 -596097 -646881 -747479 -937884
          -552611 -571230 -614031 -694813 -825616 -527010 -540292 -568517 -613458 -666909 -502408 -511044
          -528093 -551850 -575710 -482292 -487867 -498343 -511885 -524784 -468391 -472258 -479338 -488212
          -496718 -461352 -464476 -470139 -477184 -484058 -598610 -616054 -651649 -704970 -768771 -595571
          -614841 -655856 -722285 -810301 -587985 -610010 -660614 -756335 -916532 -573777 -597251 -655995
          -792135 -1.11934e+06 -552336 -572984 -625058 -750146 -1.11068e+06 -526661 -541100 -573549 -631862 -715297
          -501907 -511030 -529537 -556603 -584805 -481703 -487450 -498368 -512696 -526274 -467774 -471691
          -478886 -487931 -496524 -460733 -463866 -469552 -476624 -483482
        </DataArray>
        <DataArray type="Float32" Name="saturation" NumberOfComponents="1" format="ascii">
          0.739716 0.738015 0.734916 0.731353 0.728052 0.739431 0.737251 0.733073 0.728735 0.724998 0.739309 0.736381
          0.72996 0.724261 0.719569 0.740126 0.737534 0.732201 0.725295 0.717114 0.741468 0.739138 0.734211 0.726393
          0.715587 0.743091 0.740901 0.736018 0.727296 0.713308 0.744929 0.743001 0.73863 0.7312 0.726444 0.746847
          0.745504 0.742778 0.739094 0.737082 0.748392 0.747513 0.745889 0.743989 0.742885 0.749236 0.748583 0.747437
          0.746177 0.745374 0.737896 0.735982 0.732458 0.728764 0.725481 0.737527 0.734775 0.72893 0.724599 0.722102
          0.737325 0.732799 0.717077 0.713342 0.715211 0.738632 0.735586 0.728816 0.722134 0.715376 0.740487 0.738261
          0.73372 0.727433 0.719543 0.742526 0.740738 0.737093 0.731708 0.725501 0.744603 0.743191 0.740371 0.736503
          0.733431 0.746534 0.745532 0.743644 0.741328 0.739726 0.748015 0.747319 0.746075 0.744654 0.74367 0.74881
          0.748268 0.747324 0.746278 0.745523 0.737097 0.735328 0.732085 0.728261 0.724332 0.736919 0.734666 0.730335
          0.725769 0.721493 0.737043 0.734047 0.727431 0.721339 0.71544 0.738298 0.735755 0.730434 0.723033 0.712789
          0.740252 0.738293 0.73435 0.728733 0.722213 0.742471 0.740997 0.738121 0.734205 0.730302 0.744658 0.743575
          0.741534 0.738941 0.736735 0.746571 0.745805 0.744414 0.742756 0.741443 0.747982 0.747432 0.74646 0.745344
          0.744463 0.748728 0.748283 0.747509 0.746633 0.745927 0.737025 0.735443 0.732482 0.728632 0.724328 0.737024
          0.735169 0.73161 0.727036 0.722103 0.737358 0.735109 0.730504 0.724357 0.718201 0.738509 0.736252 0.731311
          0.723193 0.715592 0.740426 0.7386 0.734757 0.728822 0.723049 0.742693 0.74138 0.738796 0.735257 0.732016
          0.744909 0.744 0.742304 0.740166 0.738306 0.74679 0.746162 0.74503 0.743672 0.742514 0.748144 0.747688
          0.746884 0.745941 0.74513 0.748849 0.748475 0.747819 0.747056 0.74639 0.73734 0.735891 0.73311 0.72931
          0.725 0.737439 0.735779 0.732484 0.727833 0.722844 0.737861 0.735843 0.731439 0.724244 0.718204 0.738939
          0.736672 0.730775 0.715627 0.712179 0.740808 0.738982 0.734667 0.725738 0.717405 0.743063 0.741818 0.739253
          0.735415 0.731997 0.745256 0.744437 0.742886 0.740875 0.73911 0.747092 0.746542 0.745543 0.744322 0.743238
          0.748397 0.748 0.747292 0.746446 0.745679 0.749071 0.748743 0.748163 0.747471 0.746834 0.737833 0.736493
          0.733891 0.730258 0.726056 0.738001 0.736505 0.733514 0.729175 0.724095 0.738506 0.736758 0.733028 0.727036
          0.719771 0.739595 0.737704 0.733296 0.724801 0.713069 0.74138 0.739814 0.736389 0.730689 0.724465 0.743535
          0.74243 0.740215 0.737076 0.734065 0.745646 0.744908 0.743517 0.741724 0.740075 0.747418 0.746919 0.746012
          0.744892 0.743862 0.748675 0.748314 0.747667 0.746881 0.746145 0.749323 0.749024 0.748491 0.747844 0.74723
          0.738344 0.737089 0.734646 0.731207 0.727217 0.738558 0.737189 0.734457 0.730462 0.725604 0.739123 0.737591
          0.734401 0.729393 0.72272 0.740227 0.738643 0.735219 0.729442 0.721039 0.741931 0.740585 0.737787 0.733494
          0.728412 0.743976 0.742985 0.74104 0.738347 0.735594 0.745999 0.745318 0.744039 0.74239 0.740816 0.747709
          0.747243 0.746391 0.745332 0.744336 0.748927 0.748587 0.747975 0.747224 0.74651 0.749556 0.749273 0.748767
          0.748148 0.74755 0.73876 0.737554 0.735198 0.731878 0.72806 0.738991 0.737683 0.735064 0.731201 0.726441
          0.739572 0.738127 0.735121 0.730346 0.723674 0.740662 0.739186 0.736032 0.730774 0.722785 0.742303 0.74102
          0.738353 0.734208 0.729025 0.74428 0.743315 0.741409 0.738724 0.735892 0.74625 0.745581 0.744316 0.742665
          0.741071 0.747925 0.747467 0.746626 0.745574 0.744582 0.749121 0.748788 0.748188 0.747448 0.746744 0.749739
          0.749464 0.74897 0.748363 0.747775 0.739029 0.737837 0.7355 0.732198 0.728438 0.739253 0.737947 0.735307
          0.731344 0.726353 0.739813 0.738345 0.735221 0.730032 0.722206 0.740865 0.739327 0.735924 0.72987 0.720305
          0.742464 0.741094 0.738095 0.732935 0.725686 0.744419 0.743394 0.741291 0.738134 0.73465 0.746381 0.745683
          0.744335 0.742521 0.740771 0.748052 0.747583 0.746714 0.745615 0.744593 0.749243 0.748908 0.748302 0.747554
          0.746848 0.749858 0.749584 0.749091 0.748486 0.747903 0.739153 0.737959 0.735617 0.732327 0.728689 0.739364
          0.738041 0.735349 0.73131 0.726475 0.739896 0.738369 0.735047 0.729375 0.721278 0.74091 0.739247 0.73534
          0.72743 0.712828 0.742485 0.740967 0.737355 0.729721 0.713157 0.744446 0.743333 0.740926 0.736903 0.731717
          0.746422 0.745684 0.744222 0.742167 0.740121 0.748101 0.747617 0.746712 0.74555 0.744477 0.749297 0.748957
          0.748341 0.747577 0.746864 0.749913 0.749638 0.749142 0.748534 0.747951
        </DataArray>
        <DataArray type="Float32" Name="process rank" NumberOfComponents="1" format="ascii">
          2 2 2 2 2 2 2 2 2 2 2 2
          2 2 2 2 2 2 2 2 2 2 2 2
          2 2 2 2 2 2 2 2 2 2 2 2
          2 2 2 2 2 2 2 2 2 2 2 2
          2 2 2 2 2 2 2 2 2 2 2 2
          2 2 2 2 2 2 2 2 2 2 2 2
          2 2 2 2 2 2 2 2 2 2 2 2
          2 2 2 2 2 2 2 2 2 2 2 2
          2 2 2 2 2 2 2 2 2 2 2 2
          2 2 2 2 2 2 2 2 2 2 2 2
          2 2 2 2 2 2 2 2 2 2 2 2
          2 2 2 2 2 2 2 2 2 2 2 2
          2 2 2 2 2 2 2 2 2 2 2 2
          2 2 2 2 2 2 2 2 2 2 2 2
          2 2 2 2 2 2 2 2 2 2 2 2
          2 2 2 2 2 2 2 2 2 2 2 2
          2 2 2 2 2 2 2 2 2 2 2 2
          2 2 2 2 2 2 2 2 2 2 2 2
          2 2 2 2 2 2 2 2 2 2 2 2
          2 2 2 2 2 2 2 2 2 2 2 2
          2 2 2 2 2 2 2 2 2 2 2 2
          2 2 2 2 2 2 2 2 2 2 2 2
          2 2 2 2 2 2 2 2 2 2 2 2
          2 2 2 2 2 2 2 2 2 2 2 2
          2 2 2 2 2 2 2 2 2 2 2 2
          2 2 2 2 2 2 2 2 2 2 2 2
          2 2 2 2 2 2 2 2 2 2 2 2
          2 2 2 2 2 2 2 2 2 2 2 2
          2 2 2 2 2 2 2 2 2 2 2 2
          2 2 2 2 2 2 2 2 2 2 2 2
          2 2 2 2 2 2 2 2 2 2 2 2
          2 2 2 2 2 2 2 2 2 2 2 2
          2 2 2 2 2 2 2 2 2 2 2 2
          2 2 2 2 2 2 2 2 2 2 2 2
          2 2 2 2 2 2 2 2 2 2 2 2
          2 2 2 2 2 2 2 2 2 2 2 2
          2 2 2 2 2 2 2 2 2 2 2 2
          2 2 2 2 2 2 2 2 2 2 2 2
          2 2 2 2 2 2 2 2 2 2 2 2
          2 2 2 2 2 2 2 2 2 2 2 2
          2 2 2 2 2 2 2 2 2 2 2 2
          2 2 2 2 2 2 2 2
        </DataArray>
      </CellData>
      <Points>
        <DataArray type="Float32" Name="Coordinates" NumberOfComponents="3" format="ascii">
          -0.04 -0.04 -0.0789474 -0.032 -0.04 -0.0789474 -0.04 -0.032 -0.0789474 -0.032 -0.032 -0.0789474
          -0.04 -0.04 -0.0710526 -0.032 -0.04 -0.0710526 -0.04 -0.032 -0.0710526 -0.032 -0.032 -0.0710526
          -0.024 -0.04 -0.0789474 -0.024 -0.032 -0.0789474 -0.024 -0.04 -0.0710526 -0.024 -0.032 -0.0710526
          -0.016 -0.04 -0.0789474 -0.016 -0.032 -0.0789474 -0.016 -0.04 -0.0710526 -0.016 -0.032 -0.0710526
          -0.008 -0.04 -0.0789474 -0.008 -0.032 -0.0789474 -0.008 -0.04 -0.0710526 -0.008 -0.032 -0.0710526
          0 -0.04 -0.0789474 0 -0.032 -0.0789474 0 -0.04 -0.0710526 0 -0.032 -0.0710526
          -0.04 -0.024 -0.0789474 -0.032 -0.024 -0.0789474 -0.04 -0.024 -0.0710526 -0.032 -0.024 -0.0710526
          -0.024 -0.024 -0.0789474 -0.024 -0.024 -0.0710526 -0.016 -0.024 -0.0789474 -0.016 -0.024 -0.0710526
          -0.008 -0.024 -0.0789474 -0.008 -0.024 -0.0710526 0 -0.024 -0.0789474 0 -0.024 -0.0710526
          -0.04 -0.016 -0.0789474 -0.032 -0.016 -0.0789474 -0.04 -0.016 -0.0710526 -0.032 -0.016 -0.0710526
          -0.024 -0.016 -0.0789474 -0.024 -0.016 -0.0710526 -0.016 -0.016 -0.0789474 -0.016 -0.016 -0.0710526
          -0.008 -0.016 -0.0789474 -0.008 -0.016 -0.0710526 0 -0.016 -0.0789474 0 -0.016 -0.0710526
          -0.04 -0.008 -0.0789474 -0.032 -0.008 -0.0789474 -0.04 -0.008 -0.0710526 -0.032 -0.008 -0.0710526
          -0.024 -0.008 -0.0789474 -0.024 -0.008 -0.0710526 -0.016 -0.008 -0.0789474 -0.016 -0.008 -0.0710526
          -0.008 -0.008 -0.0789474 -0.008 -0.008 -0.0710526 0 -0.008 -0.0789474 0 -0.008 -0.0710526
          -0.04 0 -0.0789474 -0.032 0 -0.0789474 -0.04 0 -0.0710526 -0.032 0 -0.0710526
          -0.024 0 -0.0789474 -0.024 0 -0.0710526 -0.016 0 -0.0789474 -0.016 0 -0.0710526
          -0.008 0 -0.0789474 -0.008 0 -0.0710526 0 0 -0.0789474 0 0 -0.0710526
          -0.04 0.008 -0.0789474 -0.032 0.008 -0.0789474 -0.04 0.008 -0.0710526 -0.032 0.008 -0.0710526
          -0.024 0.008 -0.0789474 -0.024 0.008 -0.0710526 -0.016 0.008 -0.0789474 -0.016 0.008 -0.0710526
          -0.008 0.008 -0.0789474 -0.008 0.008 -0.0710526 0 0.008 -0.0789474 0 0.008 -0.0710526
          -0.04 0.016 -0.0789474 -0.032 0.016 -0.0789474 -0.04 0.016 -0.0710526 -0.032 0.016 -0.0710526
          -0.024 0.016 -0.0789474 -0.024 0.016 -0.0710526 -0.016 0.016 -0.0789474 -0.016 0.016 -0.0710526
          -0.008 0.016 -0.0789474 -0.008 0.016 -0.0710526 0 0.016 -0.0789474 0 0.016 -0.0710526
          -0.04 0.024 -0.0789474 -0.032 0.024 -0.0789474 -0.04 0.024 -0.0710526 -0.032 0.024 -0.0710526
          -0.024 0.024 -0.0789474 -0.024 0.024 -0.0710526 -0.016 0.024 -0.0789474 -0.016 0.024 -0.0710526
          -0.008 0.024 -0.0789474 -0.008 0.024 -0.0710526 0 0.024 -0.0789474 0 0.024 -0.0710526
          -0.04 0.032 -0.0789474 -0.032 0.032 -0.0789474 -0.04 0.032 -0.0710526 -0.032 0.032 -0.0710526
          -0.024 0.032 -0.0789474 -0.024 0.032 -0.0710526 -0.016 0.032 -0.0789474 -0.016 0.032 -0.0710526
          -0.008 0.032 -0.0789474 -0.008 0.032 -0.0710526 0 0.032 -0.0789474 0 0.032 -0.0710526
          -0.04 0.04 -0.0789474 -0.032 0.04 -0.0789474 -0.04 0.04 -0.0710526 -0.032 0.04 -0.0710526
          -0.024 0.04 -0.0789474 -0.024 0.04 -0.0710526 -0.016 0.04 -0.0789474 -0.016 0.04 -0.0710526
          -0.008 0.04 -0.0789474 -0.008 0.04 -0.0710526 0 0.04 -0.0789474 0 0.04 -0.0710526
          -0.04 -0.04 -0.0631579 -0.032 -0.04 -0.0631579 -0.04 -0.032 -0.0631579 -0.032 -0.032 -0.0631579
          -0.024 -0.04 -0.0631579 -0.024 -0.032 -0.0631579 -0.016 -0.04 -0.0631579 -0.016 -0.032 -0.0631579
          -0.008 -0.04 -0.0631579 -0.008 -0.032 -0.0631579 0 -0.04 -0.0631579 0 -0.032 -0.0631579
          -0.04 -0.024 -0.0631579 -0.032 -0.024 -0.0631579 -0.024 -0.024 -0.0631579 -0.016 -0.024 -0.0631579
          -0.008 -0.024 -0.0631579 0 -0.024 -0.0631579 -0.04 -0.016 -0.0631579 -0.032 -0.016 -0.0631579
          -0.024 -0.016 -0.0631579 -0.016 -0.016 -0.0631579 -0.008 -0.016 -0.0631579 0 -0.016 -0.0631579
          -0.04 -0.008 -0.0631579 -0.032 -0.008 -0.0631579 -0.024 -0.008 -0.0631579 -0.016 -0.008 -0.0631579
          -0.008 -0.008 -0.0631579 0 -0.008 -0.0631579 -0.04 0 -0.0631579 -0.032 0 -0.0631579
          -0.024 0 -0.0631579 -0.016 0 -0.0631579 -0.008 0 -0.0631579 0 0 -0.0631579
          -0.04 0.008 -0.0631579 -0.032 0.008 -0.0631579 -0.024 0.008 -0.0631579 -0.016 0.008 -0.0631579
          -0.008 0.008 -0.0631579 0 0.008 -0.0631579 -0.04 0.016 -0.0631579 -0.032 0.016 -0.0631579
          -0.024 0.016 -0.0631579 -0.016 0.016 -0.0631579 -0.008 0.016 -0.0631579 0 0.016 -0.0631579
          -0.04 0.024 -0.0631579 -0.032 0.024 -0.0631579 -0.024 0.024 -0.0631579 -0.016 0.024 -0.0631579
          -0.008 0.024 -0.0631579 0 0.024 -0.0631579 -0.04 0.032 -0.0631579 -0.032 0.032 -0.0631579
          -0.024 0.032 -0.0631579 -0.016 0.032 -0.0631579 -0.008 0.032 -0.0631579 0 0.032 -0.0631579
          -0.04 0.04 -0.0631579 -0.032 0.04 -0.0631579 -0.024 0.04 -0.0631579 -0.016 0.04 -0.0631579
          -0.008 0.04 -0.0631579 0 0.04 -0.0631579 -0.04 -0.04 -0.0552632 -0.032 -0.04 -0.0552632
          -0.04 -0.032 -0.0552632 -0.032 -0.032 -0.0552632 -0.024 -0.04 -0.0552632 -0.024 -0.032 -0.0552632
          -0.016 -0.04 -0.0552632 -0.016 -0.032 -0.0552632 -0.008 -0.04 -0.0552632 -0.008 -0.032 -0.0552632
          0 -0.04 -0.0552632 0 -0.032 -0.0552632 -0.04 -0.024 -0.0552632 -0.032 -0.024 -0.0552632
          -0.024 -0.024 -0.0552632 -0.016 -0.024 -0.0552632 -0.008 -0.024 -0.0552632 0 -0.024 -0.0552632
          -0.04 -0.016 -0.0552632 -0.032 -0.016 -0.0552632 -0.024 -0.016 -0.0552632 -0.016 -0.016 -0.0552632
          -0.008 -0.016 -0.0552632 0 -0.016 -0.0552632 -0.04 -0.008 -0.0552632 -0.032 -0.008 -0.0552632
          -0.024 -0.008 -0.0552632 -0.016 -0.008 -0.0552632 -0.008 -0.008 -0.0552632 0 -0.008 -0.0552632
          -0.04 0 -0.0552632 -0.032 0 -0.0552632 -0.024 0 -0.0552632 -0.016 0 -0.0552632
          -0.008 0 -0.0552632 0 0 -0.0552632 -0.04 0.008 -0.0552632 -0.032 0.008 -0.0552632
          -0.024 0.008 -0.0552632 -0.016 0.008 -0.0552632 -0.008 0.008 -0.0552632 0 0.008 -0.0552632
          -0.04 0.016 -0.0552632 -0.032 0.016 -0.0552632 -0.024 0.016 -0.0552632 -0.016 0.016 -0.0552632
          -0.008 0.016 -0.0552632 0 0.016 -0.0552632 -0.04 0.024 -0.0552632 -0.032 0.024 -0.0552632
          -0.024 0.024 -0.0552632 -0.016 0.024 -0.0552632 -0.008 0.024 -0.0552632 0 0.024 -0.0552632
          -0.04 0.032 -0.0552632 -0.032 0.032 -0.0552632 -0.024 0.032 -0.0552632 -0.016 0.032 -0.0552632
          -0.008 0.032 -0.0552632 0 0.032 -0.0552632 -0.04 0.04 -0.0552632 -0.032 0.04 -0.0552632
          -0.024 0.04 -0.0552632 -0.016 0.04 -0.0552632 -0.008 0.04 -0.0552632 0 0.04 -0.0552632
          -0.04 -0.04 -0.0473684 -0.032 -0.04 -0.0473684 -0.04 -0.032 -0.0473684 -0.032 -0.032 -0.0473684
          -0.024 -0.04 -0.0473684 -0.024 -0.032 -0.0473684 -0.016 -0.04 -0.0473684 -0.016 -0.032 -0.0473684
          -0.008 -0.04 -0.0473684 -0.008 -0.032 -0.0473684 0 -0.04 -0.0473684 0 -0.032 -0.0473684
          -0.04 -0.024 -0.0473684 -0.032 -0.024 -0.0473684 -0.024 -0.024 -0.0473684 -0.016 -0.024 -0.0473684
          -0.008 -0.024 -0.0473684 0 -0.024 -0.0473684 -0.04 -0.016 -0.0473684 -0.032 -0.016 -0.0473684
          -0.024 -0.016 -0.0473684 -0.016 -0.016 -0.0473684 -0.008 -0.016 -0.0473684 0 -0.016 -0.0473684
          -0.04 -0.008 -0.0473684 -0.032 -0.008 -0.0473684 -0.024 -0.008 -0.0473684 -0.016 -0.008 -0.0473684
          -0.008 -0.008 -0.0473684 0 -0.008 -0.0473684 -0.04 0 -0.0473684 -0.032 0 -0.0473684
          -0.024 0 -0.0473684 -0.016 0 -0.0473684 -0.008 0 -0.0473684 0 0 -0.0473684
          -0.04 0.008 -0.0473684 -0.032 0.008 -0.0473684 -0.024 0.008 -0.0473684 -0.016 0.008 -0.0473684
          -0.008 0.008 -0.0473684 0 0.008 -0.0473684 -0.04 0.016 -0.0473684 -0.032 0.016 -0.0473684
          -0.024 0.016 -0.0473684 -0.016 0.016 -0.0473684 -0.008 0.016 -0.0473684 0 0.016 -0.0473684
          -0.04 0.024 -0.0473684 -0.032 0.024 -0.0473684 -0.024 0.024 -0.0473684 -0.016 0.024 -0.0473684
          -0.008 0.024 -0.0473684 0 0.024 -0.0473684 -0.04 0.032 -0.0473684 -0.032 0.032 -0.0473684
          -0.024 0.032 -0.0473684 -0.016 0.032 -0.0473684 -0.008 0.032 -0.0473684 0 0.032 -0.0473684
          -0.04 0.04 -0.0473684 -0.032 0.04 -0.0473684 -0.024 0.04 -0.0473684 -0.016 0.04 -0.0473684
          -0.008 0.04 -0.0473684 0 0.04 -0.0473684 -0.04 -0.04 -0.0394737 -0.032 -0.04 -0.0394737
          -0.04 -0.032 -0.0394737 -0.032 -0.032 -0.0394737 -0.024 -0.04 -0.0394737 -0.024 -0.032 -0.0394737
          -0.016 -0.04 -0.0394737 -0.016 -0.032 -0.0394737 -0.008 -0.04 -0.0394737 -0.008 -0.032 -0.0394737
          0 -0.04 -0.0394737 0 -0.032 -0.0394737 -0.04 -0.024 -0.0394737 -0.032 -0.024 -0.0394737
          -0.024 -0.024 -0.0394737 -0.016 -0.024 -0.0394737 -0.008 -0.024 -0.0394737 0 -0.024 -0.0394737
          -0.04 -0.016 -0.0394737 -0.032 -0.016 -0.0394737 -0.024 -0.016 -0.0394737 -0.016 -0.016 -0.0394737
          -0.008 -0.016 -0.0394737 0 -0.016 -0.0394737 -0.04 -0.008 -0.0394737 -0.032 -0.008 -0.0394737
          -0.024 -0.008 -0.0394737 -0.016 -0.008 -0.0394737 -0.008 -0.008 -0.0394737 0 -0.008 -0.0394737
          -0.04 0 -0.0394737 -0.032 0 -0.0394737 -0.024 0 -0.0394737 -0.016 0 -0.0394737
          -0.008 0 -0.0394737 0 0 -0.0394737 -0.04 0.008 -0.0394737 -0.032 0.008 -0.0394737
          -0.024 0.008 -0.0394737 -0.016 0.008 -0.0394737 -0.008 0.008 -0.0394737 0 0.008 -0.0394737
          -0.04 0.016 -0.0394737 -0.032 0.016 -0.0394737 -0.024 0.016 -0.0394737 -0.016 0.016 -0.0394737
          -0.008 0.016 -0.0394737 0 0.016 -0.0394737 -0.04 0.024 -0.0394737 -0.032 0.024 -0.0394737
          -0.024 0.024 -0.0394737 -0.016 0.024 -0.0394737 -0.008 0.024 -0.0394737 0 0.024 -0.0394737
          -0.04 0.032 -0.0394737 -0.032 0.032 -0.0394737 -0.024 0.032 -0.0394737 -0.016 0.032 -0.0394737
          -0.008 0.032 -0.0394737 0 0.032 -0.0394737 -0.04 0.04 -0.0394737 -0.032 0.04 -0.0394737
          -0.024 0.04 -0.0394737 -0.016 0.04 -0.0394737 -0.008 0.04 -0.0394737 0 0.04 -0.0394737
          -0.04 -0.04 -0.0315789 -0.032 -0.04 -0.0315789 -0.04 -0.032 -0.0315789 -0.032 -0.032 -0.0315789
          -0.024 -0.04 -0.0315789 -0.024 -0.032 -0.0315789 -0.016 -0.04 -0.0315789 -0.016 -0.032 -0.0315789
          -0.008 -0.04 -0.0315789 -0.008 -0.032 -0.0315789 0 -0.04 -0.0315789 0 -0.032 -0.0315789
          -0.04 -0.024 -0.0315789 -0.032 -0.024 -0.0315789 -0.024 -0.024 -0.0315789 -0.016 -0.024 -0.0315789
          -0.008 -0.024 -0.0315789 0 -0.024 -0.0315789 -0.04 -0.016 -0.0315789 -0.032 -0.016 -0.0315789
          -0.024 -0.016 -0.0315789 -0.016 -0.016 -0.0315789 -0.008 -0.016 -0.0315789 0 -0.016 -0.0315789
          -0.04 -0.008 -0.0315789 -0.032 -0.008 -0.0315789 -0.024 -0.008 -0.0315789 -0.016 -0.008 -0.0315789
          -0.008 -0.008 -0.0315789 0 -0.008 -0.0315789 -0.04 0 -0.0315789 -0.032 0 -0.0315789
          -0.024 0 -0.0315789 -0.016 0 -0.0315789 -0.008 0 -0.0315789 0 0 -0.0315789
          -0.04 0.008 -0.0315789 -0.032 0.008 -0.0315789 -0.024 0.008 -0.0315789 -0.016 0.008 -0.0315789
          -0.008 0.008 -0.0315789 0 0.008 -0.0315789 -0.04 0.016 -0.0315789 -0.032 0.016 -0.0315789
          -0.024 0.016 -0.0315789 -0.016 0.016 -0.0315789 -0.008 0.016 -0.0315789 0 0.016 -0.0315789
          -0.04 0.024 -0.0315789 -0.032 0.024 -0.0315789 -0.024 0.024 -0.0315789 -0.016 0.024 -0.0315789
          -0.008 0.024 -0.0315789 0 0.024 -0.0315789 -0.04 0.032 -0.0315789 -0.032 0.032 -0.0315789
          -0.024 0.032 -0.0315789 -0.016 0.032 -0.0315789 -0.008 0.032 -0.0315789 0 0.032 -0.0315789
          -0.04 0.04 -0.0315789 -0.032 0.04 -0.0315789 -0.024 0.04 -0.0315789 -0.016 0.04 -0.0315789
          -0.008 0.04 -0.0315789 0 0.04 -0.0315789 -0.04 -0.04 -0.0236842 -0.032 -0.04 -0.0236842
          -0.04 -0.032 -0.0236842 -0.032 -0.032 -0.0236842 -0.024 -0.04 -0.0236842 -0.024 -0.032 -0.0236842
          -0.016 -0.04 -0.0236842 -0.016 -0.032 -0.0236842 -0.008 -0.04 -0.0236842 -0.008 -0.032 -0.0236842
          0 -0.04 -0.0236842 0 -0.032 -0.0236842 -0.04 -0.024 -0.0236842 -0.032 -0.024 -0.0236842
          -0.024 -0.024 -0.0236842 -0.016 -0.024 -0.0236842 -0.008 -0.024 -0.0236842 0 -0.024 -0.0236842
          -0.04 -0.016 -0.0236842 -0.032 -0.016 -0.0236842 -0.024 -0.016 -0.0236842 -0.016 -0.016 -0.0236842
          -0.008 -0.016 -0.0236842 0 -0.016 -0.0236842 -0.04 -0.008 -0.0236842 -0.032 -0.008 -0.0236842
          -0.024 -0.008 -0.0236842 -0.016 -0.008 -0.0236842 -0.008 -0.008 -0.0236842 0 -0.008 -0.0236842
          -0.04 0 -0.0236842 -0.032 0 -0.0236842 -0.024 0 -0.0236842 -0.016 0 -0.0236842
          -0.008 0 -0.0236842 0 0 -0.0236842 -0.04 0.008 -0.0236842 -0.032 0.008 -0.0236842
          -0.024 0.008 -0.0236842 -0.016 0.008 -0.0236842 -0.008 0.008 -0.0236842 0 0.008 -0.0236842
          -0.04 0.016 -0.0236842 -0.032 0.016 -0.0236842 -0.024 0.016 -0.0236842 -0.016 0.016 -0.0236842
          -0.008 0.016 -0.0236842 0 0.016 -0.0236842 -0.04 0.024 -0.0236842 -0.032 0.024 -0.0236842
          -0.024 0.024 -0.0236842 -0.016 0.024 -0.0236842 -0.008 0.024 -0.0236842 0 0.024 -0.0236842
          -0.04 0.032 -0.0236842 -0.032 0.032 -0.0236842 -0.024 0.032 -0.0236842 -0.016 0.032 -0.0236842
          -0.008 0.032 -0.0236842 0 0.032 -0.0236842 -0.04 0.04 -0.0236842 -0.032 0.04 -0.0236842
          -0.024 0.04 -0.0236842 -0.016 0.04 -0.0236842 -0.008 0.04 -0.0236842 0 0.04 -0.0236842
          -0.04 -0.04 -0.0157895 -0.032 -0.04 -0.0157895 -0.04 -0.032 -0.0157895 -0.032 -0.032 -0.0157895
          -0.024 -0.04 -0.0157895 -0.024 -0.032 -0.0157895 -0.016 -0.04 -0.0157895 -0.016 -0.032 -0.0157895
          -0.008 -0.04 -0.0157895 -0.008 -0.032 -0.0157895 0 -0.04 -0.0157895 0 -0.032 -0.0157895
          -0.04 -0.024 -0.0157895 -0.032 -0.024 -0.0157895 -0.024 -0.024 -0.0157895 -0.016 -0.024 -0.0157895
          -0.008 -0.024 -0.0157895 0 -0.024 -0.0157895 -0.04 -0.016 -0.0157895 -0.032 -0.016 -0.0157895
          -0.024 -0.016 -0.0157895 -0.016 -0.016 -0.0157895 -0.008 -0.016 -0.0157895 0 -0.016 -0.0157895
          -0.04 -0.008 -0.0157895 -0.032 -0.008 -0.0157895 -0.024 -0.008 -0.0157895 -0.016 -0.008 -0.0157895
          -0.008 -0.008 -0.0157895 0 -0.008 -0.0157895 -0.04 0 -0.0157895 -0.032 0 -0.0157895
          -0.024 0 -0.0157895 -0.016 0 -0.0157895 -0.008 0 -0.0157895 0 0 -0.0157895
          -0.04 0.008 -0.0157895 -0.032 0.008 -0.0157895 -0.024 0.008 -0.0157895 -0.016 0.008 -0.0157895
          -0.008 0.008 -0.0157895 0 0.008 -0.0157895 -0.04 0.016 -0.0157895 -0.032 0.016 -0.0157895
          -0.024 0.016 -0.0157895 -0.016 0.016 -0.0157895 -0.008 0.016 -0.0157895 0 0.016 -0.0157895
          -0.04 0.024 -0.0157895 -0.032 0.024 -0.0157895 -0.024 0.024 -0.0157895 -0.016 0.024 -0.0157895
          -0.008 0.024 -0.0157895 0 0.024 -0.0157895 -0.04 0.032 -0.0157895 -0.032 0.032 -0.0157895
          -0.024 0.032 -0.0157895 -0.016 0.032 -0.0157895 -0.008 0.032 -0.0157895 0 0.032 -0.0157895
          -0.04 0.04 -0.0157895 -0.032 0.04 -0.0157895 -0.024 0.04 -0.0157895 -0.016 0.04 -0.0157895
          -0.008 0.04 -0.0157895 0 0.04 -0.0157895 -0.04 -0.04 -0.00789474 -0.032 -0.04 -0.00789474
          -0.04 -0.032 -0.00789474 -0.032 -0.032 -0.00789474 -0.024 -0.04 -0.00789474 -0.024 -0.032 -0.00789474
          -0.016 -0.04 -0.00789474 -0.016 -0.032 -0.00789474 -0.008 -0.04 -0.00789474 -0.008 -0.032 -0.00789474
          0 -0.04 -0.00789474 0 -0.032 -0.00789474 -0.04 -0.024 -0.00789474 -0.032 -0.024 -0.00789474
          -0.024 -0.024 -0.00789474 -0.016 -0.024 -0.00789474 -0.008 -0.024 -0.00789474 0 -0.024 -0.00789474
          -0.04 -0.016 -0.00789474 -0.032 -0.016 -0.00789474 -0.024 -0.016 -0.00789474 -0.016 -0.016 -0.00789474
          -0.008 -0.016 -0.00789474 0 -0.016 -0.00789474 -0.04 -0.008 -0.00789474 -0.032 -0.008 -0.00789474
          -0.024 -0.008 -0.00789474 -0.016 -0.008 -0.00789474 -0.008 -0.008 -0.00789474 0 -0.008 -0.00789474
          -0.04 0 -0.00789474 -0.032 0 -0.00789474 -0.024 0 -0.00789474 -0.016 0 -0.00789474
          -0.008 0 -0.00789474 0 0 -0.00789474 -0.04 0.008 -0.00789474 -0.032 0.008 -0.00789474
          -0.024 0.008 -0.00789474 -0.016 0.008 -0.00789474 -0.008 0.008 -0.00789474 0 0.008 -0.00789474
          -0.04 0.016 -0.00789474 -0.032 0.016 -0.00789474 -0.024 0.016 -0.00789474 -0.016 0.016 -0.00789474
          -0.008 0.016 -0.00789474 0 0.016 -0.00789474 -0.04 0.024 -0.00789474 -0.032 0.024 -0.00789474
          -0.024 0.024 -0.00789474 -0.016 0.024 -0.00789474 -0.008 0.024 -0.00789474 0 0.024 -0.00789474
          -0.04 0.032 -0.00789474 -0.032 0.032 -0.00789474 -0.024 0.032 -0.00789474 -0.016 0.032 -0.00789474
          -0.008 0.032 -0.00789474 0 0.032 -0.00789474 -0.04 0.04 -0.00789474 -0.032 0.04 -0.00789474
          -0.024 0.04 -0.00789474 -0.016 0.04 -0.00789474 -0.008 0.04 -0.00789474 0 0.04 -0.00789474
          -0.04 -0.04 3.46945e-18 -0.032 -0.04 3.46945e-18 -0.04 -0.032 3.46945e-18 -0.032 -0.032 3.46945e-18
          -0.024 -0.04 3.46945e-18 -0.024 -0.032 3.46945e-18 -0.016 -0.04 3.46945e-18 -0.016 -0.032 3.46945e-18
          -0.008 -0.04 3.46945e-18 -0.008 -0.032 3.46945e-18 0 -0.04 3.46945e-18 0 -0.032 3.46945e-18
          -0.04 -0.024 3.46945e-18 -0.032 -0.024 3.46945e-18 -0.024 -0.024 3.46945e-18 -0.016 -0.024 3.46945e-18
          -0.008 -0.024 3.46945e-18 0 -0.024 3.46945e-18 -0.04 -0.016 3.46945e-18 -0.032 -0.016 3.46945e-18
          -0.024 -0.016 3.46945e-18 -0.016 -0.016 3.46945e-18 -0.008 -0.016 3.46945e-18 0 -0.016 3.46945e-18
          -0.04 -0.008 3.46945e-18 -0.032 -0.008 3.46945e-18 -0.024 -0.008 3.46945e-18 -0.016 -0.008 3.46945e-18
          -0.008 -0.008 3.46945e-18 0 -0.008 3.46945e-18 -0.04 0 3.46945e-18 -0.032 0 3.46945e-18
          -0.024 0 3.46945e-18 -0.016 0 3.46945e-18 -0.008 0 3.46945e-18 0 0 3.46945e-18
          -0.04 0.008 3.46945e-18 -0.032 0.008 3.46945e-18 -0.024 0.008 3.46945e-18 -0.016 0.008 3.46945e-18
          -0.008 0.008 3.46945e-18 0 0.008 3.46945e-18 -0.04 0.016 3.46945e-18 -0.032 0.016 3.46945e-18
          -0.024 0.016 3.46945e-18 -0.016 0.016 3.46945e-18 -0.008 0.016 3.46945e-18 0 0.016 3.46945e-18
          -0.04 0.024 3.46945e-18 -0.032 0.024 3.46945e-18 -0.024 0.024 3.46945e-18 -0.016 0.024 3.46945e-18
          -0.008 0.024 3.46945e-18 0 0.024 3.46945e-18 -0.04 0.032 3.46945e-18 -0.032 0.032 3.46945e-18
          -0.024 0.032 3.46945e-18 -0.016 0.032 3.46945e-18 -0.008 0.032 3.46945e-18 0 0.032 3.46945e-18
          -0.04 0.04 3.46945e-18 -0.032 0.04 3.46945e-18 -0.024 0.04 3.46945e-18 -0.016 0.04 3.46945e-18