<?xml version="1.0"?>
<VTKFile type="UnstructuredGrid" version="0.1" byte_order="LittleEndian">
  <UnstructuredGrid>
    <Piece NumberOfCells="8450" NumberOfPoints="9828">
      <CellData Scalars="p (Pa)">
        <DataArray type="Float32" Name="p (Pa)" NumberOfComponents="1" format="ascii">
          26942.3 26672.3 26132.5 25324.6 24255.3 22939.7 21404.8 19688.6 17834.8 15884.3 13872.3 11828.5
          9778.39 26838.2 26554.1 25984.6 25129 23991.6 22587.4 20947.6 19120.1 17159.5 15111 13009.1
          10881.8 8754.49 26640.3 26327.9 25698.2 24744.3 23463.4 21867.3 19996.3 17924.2 15736.3 13483.8
          11194.8 8890.41 6592.34 26369.5 26015.3 25295.1 24188.2 22674.2 20751.9 18472.8 15968.1 13405.4
          10831.5 8246.46 5649.84 3044.68 26058.9 25651.8 24814 23499.4 21648.2 19217.4 16256.2 13016.4
          9903.85 6892.69 3890.16 847.393 -2294.64 25752 25287.5 24317.4 22755.3 20467.2 17301.5 13231.4
          8721.72 4917.8 1406.91 -2150.38 -5872.29 -9990.5 25499.4 24983.9 23893 22090.9 19336.3 15267.4
          9567.94 2872.29 -1477.57 -5423.12 -9763.07 -14615.9 -20651.7 25348.6 24802.4 23638.8 21689.9 18632.5
          13892 6656.14 -2951.23 -7134.46 -11618.6 -17399.3 -24501 -34606.6 25330.9 24782.7 23619.5 21688.8
          18714.6 14263.1 7874.8 -35.2891 -6134.77 -12699.5 -21233.1 -33062.7 -51768.3 25452.6 24926.3 23820.1
          22017.9 19327.5 15487.8 10276 3862.71 -2900.43 -11074.2 -22376.4 -39978.1 -73326.6 25700.3 25208.6
          24184.8 22544.6 20156.7 16850.7 12459.9 6895.29 54.6238 -9067.09 -22692.1 -46185 -95872.5 26050.8
          25597 24658.4 23170.5 21033.1 18107.7 14215.1 9103.36 2280.01 -7526.91 -23445.8 -55145.5 -147032
          26480.1 26062.8 25202.4 23844.8 21902.2 19242.2 15660.2 10806.4 3976.47 -6466.1 -24815 -65097.6
          -186406 26967.7 26584.2 25794.3 24548.9 22765 20309.3 16959 12307.2 5503.34 -5566.52 -27643.3
          -92976.6 -427139 27497 27145.5 26421.6 25279.6 23640.8 21374.5 18258.4 13883.7 7399.34 -3296.23
          -24469.1 -75499.1 -115300 28053.8 27734 27075.5 26037 24547 22487.3 19661.9 15734.2 10097.7
          1624.35 -11597.7 -30277.6 -33518.1 28624.6 28337.2 27746.1 26816.3 25487.9 23664.8 21197 17855.4
          13314.6 7233.08 -217.636 -6547.29 -6449.92 29195.5 28941.2 28419.8 27604.1 26449.4 24887.8 22824.4
          20141.6 16740.7 12694.5 8619.18 6080.05 6374.6 29751.3 29530.2 29078.8 28378.6 27400.5 26104.7
          24445.2 22386.5 19952.9 17333.1 15023.9 13786.2 13957.3 30276.5 30087.2 29703 29113.3 28302.5
          27253.5 25954.4 24416 22706.1 21000.3 19612.8 18898.5 18959.5 30756 30595.7 30272.6 29782.2
          29119.4 28282.2 27278.4 26137.9 24932.3 23792.5 22903.6 22436.5 22431.5 31175.9 31040.8 30770.1
          30363.8 29823.8 29156.8 28379.7 27526.9 26659.3 25867.6 25260.8 24927.4 24888.6 31524.9 31410.2
          31181.8 30842.6 30398.3 29860.1 29248 28594.4 27947.5 27370.1 26928.9 26674.4 26620.6 31794
          31694.6 31497.8 31208 30833.2 30386.2 29887.2 29365 28857.8 28410.7 28067.8 27861.4 27802.1
          31976.7 31887.6 31711.7 31454.3 31124.2 30735.1 30306.1 29863.2 29438.2 29065.7 28778.5 28600
          28539.3 32069.1 31985 31819.5 31578 31269.9 30908.7 30513.2 30107.6 29720.4 29382.1 29120.2
          28954.7 28893.8 26610.7 26325.3 25754.2 24898.4 23764.2 22367.4 20737.8 18918.4 16956.7 14891.7
          12747.3 10529.6 8225.47 26499.7 26198.1 25592.6 24680.9 23465.8 21962.4 20206.4 18255.4 16174.8
          14010.1 11784.5 9500.65 7140.36 26288.7 25954.4 25278.5 24249.8 22860.2 21119.1 19073.4 16820.8
          14480.8 12109.2 9721.17 7308.16 4835.42 26000.6 25617.2 24833.4 23618 21934.3 19765.9 17168.6
          14335 11551.3 8860.55 6237.89 3648.63 1007.63 25671.5 25225.2 24298.4 22820.1 20686.2 17791
          14147.9 10156.8 6704.4 3623.63 740.508 -2013.14 -4872.8 25350.4 24834.9 23743.3 21938.1 19174.6
          15089.1 9378.92 2737.42 -1412.82 -4700.41 -7734.36 -10472.9 -13608.2 25094.9 24518.2 23274.4 21139.4
          17641.8 11830.8 2078.58 -11905.5 -14805.4 -17243.6 -20162.6 -22427.1 -26138.6 24959.7 24349 23019.6
          20689.6 16696.6 9366.74 -5977.66 -41631.6 -30870.5 -30943.3 -34439.7 -36494.3 -42752.3 24979.5 24374.2
          23066.5 20815.6 17111.5 10909 332.178 -15429.9 -20570.4 -26179.6 -34249.5 -44585 -61276.4 25157.7
          24588.7 23378.3 21360.5 18231.5 13504.4 6626.79 -2118.44 -9506.49 -17839 -29280.9 -46823 -79701.8
          25473.2 24955.1 23869.3 22110 19505 15822.7 10850.5 4628.28 -2427.5 -11417.3 -24622.6 -47468.4
          -97453 25895.4 25429.9 24465 22931.2 20720.9 17693.7 13694.8 8571.69 2045.69 -6956.55 -21173.3
          -49559.1 -136080 26394 25976.9 25118 23766.7 21843.7 19237.8 15795.1 11277.7 5218.17 -3488.8
          -17535.2 -44633.3 -110393 26944.1 26569.9 25802 24599.4 22896 20592 17533.4 13460.3 7874.85
          -290.735 -13552.7 -38655.6 -93417.4 27526.1 27190.5 26502.9 25428.4 23909.6 21857.1 19130.1 15495.1
          10535.8 3468.7 -7129.91 -22847.9 -37356.2 28124.6 27824.7 27211.2 26254.7 24906.7 23092.7 20700
          17558.5 13417.1 7945.69 927.659 -6759.89 -10648.5 28725.6 28459.9 27917.4 27074.7 25894.1 24319.7
          22274.4 19660.5 16380 12417.7 8077.92 4422.93 3193.49 29315.6 29083 28609.5 27878.1 26862.7
          25527.5 23830.6 21735.7 19247.2 16488.7 13831 11956.1 11482.5 29881.2 29680.2 29272.8 28648.3
          27791.5 26684.6 25313.7 23683.5 21846.7 19951.7 18284.7 17220.7 16987.1 30408.9 30237.3 29891.2
          29365.5 28654 27752.6 26665.9 25419.4 24078.2 22769 21682.2 21018 20868.8 30885.7 30740.4
          30449 30010.5 29425.4 28698.5 27844.5 26895.7 25912.8 24990.8 24250.6 23801.5 23686.7 31300.1
          31177.3 30932.3 30567.1 30086.3 29499.9 28826.5 28098.4 27365.7 26697 26168.9 25844.4 25747.5
          31642.7 31538 31330.2 31023.1 30623.9 30144.6 29604.6 29033.3 28470.7 27966 27570 27321.5
          27236 31905.8 31814.7 31634.6 31370.5 31030.6 30627.7 30180.7 29715.2 29263.7 28862.9 28548.5
          28346.9 28269.4 32084 32002 31840.3 31604.3 31302.9 30948.8 30560.1 30159.6 29774.9 29435.3
          29168.4 28994.2 28922 32174 32096.4 31943.8 31721.8 31439.2 31108.9 30748.2 30378.6 30025.2
          29714.1 29469 29307.5 29237.9 26341.4 26043.2 25445.8 24549.3 23358.8 21889.6 20172.2 18251.5
          16176.9 13984.1 11685.7 9263.28 6659.88 26226 25910.1 25274.8 24316.2 23034.8 21444.3 19581.5
          17509 15299.5 12998.6 10619.6 8140.77 5495.28 26006.9 25654.9 24941.8 23852.1 22372.1 20505.7
          18299.9 15866.4 13353.5 10823.6 8286 5709.93 2999.05 25708.4 25302.2 24468.5 23166.4 21343.4
          18962.1 16065.1 12880.1 9816.37 6919.88 4165.21 1512.15 -1229.96 25369.2 24893 23897.4 22289.7
          19921.4 16607.1 12259.7 7326.26 3360.08 -0.249089 -2935.9 -5413.3 -7974.71 25042.5 24488.6 23304
          21304.7 18129.3 13123.3 5351.39 -5071.4 -9755.3 -13187.2 -15895.8 -17007.9 -18638.2 24791 24168.8
          22807.7 20399.4 16203.9 8311.4 -8686.53 -48494.1 -40909.9 -40901.6 -41876.7 -36622.5 -35335.1 24674.8
          24016.6 22560 19908.4 14953.9 3714.07 -37540.9 -380901 -108209 -94288.2 -92971 -65187.2 -59356.4
          24730.9 24084.6 22669.5 20162 15784.4 7518.69 -10420.7 -52984.1 -48710.2 -53314.5 -62853.6 -70806.7
          -83139.6 24959.8 24361.6 23077.9 20899.7 17410.8 11834.6 2953.94 -9681.92 -17912.4 -26992.9 -39579.9
          -58039.7 -88664.5 25334.9 24800.4 23675.3 21836.9 19076.9 15095 9587.21 2630.51 -4680.56 -13591.3
          -26319.3 -47712.4 -92776.8 25819.2 25349 24373.3 22819.4 20575.7 17499.5 13453.3 8367.79 2186.52
          -5927.83 -18133.5 -41544.9 -113307 26377.5 25965.2 25117.4 23787.5 21905.3 19379.8 16102 11932.2
          6607.91 -561.638 -11260.8 -30744.3 -85084.8 26981 26618.9 25878.2 24725.7 23110.4 20961.5 18181.9
          14625.2 10035.2 3911.82 -4719.25 -17818.3 -39054.9 27607.8 27289.3 26639.9 25634.2 24232.4 22377.6
          19989.4 16949.7 13078.4 8107.49 1721.92 -6082.23 -13695.2 28240.9 27961.2 27392.2 26514.5 25297.6
          23698.4 21659.5 19106.8 15956.5 12150.6 7784.24 3420.67 462.525 28866 28621.6 28125.9 27364.5
          26316 24951.8 23238.5 21145.4 18665.2 15864 12977.9 10525.3 9219.45 29470.3 29258.6 28830.5
          28176.7 27284 26137.6 24725.4 23049.1 21146.3 19128.3 17224 15780.4 15122.5 30041.8 29860.1
          29494.1 28939 28189 27240.3 26096.4 24778.4 23341.7 21896.4 20618.1 19716.2 19339.5 30568.8
          30414.2 30104.1 29637.5 29014.2 28238.5 27323.2 26297.9 25219 24177.7 23296.3 22698.3 22456
          31040.6 30909.7 30648.5 30258.5 29743.6 29113 28383.9 27587.6 26773.5 26011.5 25384.1 24965.4
          24793.8 31447.8 31336.9 31116.6 30790.3 30364.3 29850.2 29266.5 28642.4 28018.9 27447.8 26984.9
          26676.5 26545.5 31782.5 31687.7 31500 31224 30867.3 30442.3 29967.3 29467.9 28977.5 28534.9
          28178.9 27940.4 27834.3 32038.6 31955.8 31792.4 31553.5 31247.3 30886.3 30487.7 30074.1 29672.8
          29313.9 29026.2 28831.6 28741.2 32211.8 32136.8 31989.4 31774.9 31501.6 31181.7 30831.5 30471.2
          30124.5 29816 29568.8 29400.3 29319.3 32299 32228 32088.5 31886 31628.9 31329.1 31002.3
          30667.6 30346.7 30062 29833.7 29677.3 29600.7 26144.4 25837.1 25220.9 24295 23063 21538.8
          19751.1 17742.9 15561.1 13237 10771.8 8123.66 5190.56 26027.9 25702.2 25046.7 24056.3 22729.5
          21077.9 19135.6 16963.1 14631.5 12185.3 9629.88 6921.84 3945.7 25807.1 25444.1 24708.1 23581.7
          22047.9 20106.6 17799.2 15232.3 12553 9836.02 7094.32 4286.25 1257.92 25507.5 25088.7 24228.3
          22882.1 20992.1 18511.2 15467.5 12066.4 8703.24 5496.94 2461.17 -403.597 -3382.84 25169.6 24679.1
          23652.4 21991.8 19538.3 16086 11502.3 6127.32 1347.16 -2741.65 -6199.56 -8678.37 -11106.1 24849
          24279.4 23060.1 20999.8 17720.3 12527.1 4357.57 -7201.57 -15631 -21528.3 -25599.1 -24735.8 -24415.1
          24610.9 23972.6 22575.7 20103.2 15795.6 7694.98 -9789.63 -51922.7 -74722.7 -85130.6 -90292.2 -61398.4
          -48788.5 24516.9 23844 22354.6 19644.7 14595.8 3269.05 -36618 -330450 -419032 -425160 -426273
          -151119 -93923 24604.6 23946.7 22505.8 19952.2 15496.2 7094.41 -11134.8 -55424.1 -83286.7 -102425
          -129396 -151585 -156051 24873.1 24267.9 22969 20764.1 17230.5 11573.9 2499.16 -10916.5 -22844.8
          -35023.2 -51875.1 -76954.7 -108248 25293.1 24757.2 23629.4 21787.3 19023.1 15037 9515.85 2474.15
          -5185.88 -14209.5 -26526.1 -45309.7 -75730.7 25824.4 25358.5 24392.9 22858 20648.7 17635 13701.4
          8817.19 3010.31 -4226.19 -14151.9 -29663.7 -58724.9 26428.1 26025.5 25199.5 23908.7 22093.7 19682.9
          16603.2 12783.1 8099.59 2193.84 -5722.31 -17441 -37575.9 27072.7 26724.7 26015.3 24918 23394.8
          21397.9 18871.4 15744.4 11905.7 7151.97 1151.74 -6555.86 -16225.6 27733.7 27432.6 26821.2 25881.8
          24588.1 22906.9 20797.8 18211.7 15088.2 11362.2 7016.6 2244.51 -2194.11 28392.8 28132.3 27605.2
          26799.4 25697.2 24277.3 22515.8 20391.2 17894.8 15057.7 12013.8 9102.87 6943.41 29035.3 28810.7
          28357.6 27668.3 26732.5 25539 24079.8 22357 20397.9 18281.7 16177.5 14373.5 13228.6 29648.8
          29456.2 29068.9 28482.9 27694 26699.8 25504.4 24126.1 22610.6 21048.4 19589.3 18433.6 17772
          30222.4 30058.3 29729.4 29234.9 28575.3 27754.8 26785.6 25694.6 24531.9 23380 22354.2 21584
          21170.2 30746.2 30607.1 30329.4 29914.7 29366.8 28694.4 27914 27054.9 26164.2 25309.2 24573.4
          24039 23761.3 31211.3 31093.7 30859.8 30512.8 30059 29509.1 28881.4 28204 27517.5 26874.2
          26333.3 25947.5 25749.4 31610.1 31510.3 31312.7 31021.4 30643.9 30192 29683.6 29144.2 28607.3
          28113.2 27703.7 27414.1 27264.8 31936.2 31850.6 31681.7 31434.1 31116 30739.1 30320.3 29882
          29451.8 29060.8 28739.6 28512.8 28394.4 32184.9 32109.8 31962.1 31746.8 31471.8 31148.9 30793.6
          30425.6 30068.1 29745.9 29482.3 29296 29197.2 32352.5 32284.4 32150.7 31956.5 31709.7 31421.6
          31106.7 30783 30470.5 30190.3 29961.7 29799.5 29712.4 32436.9 32372.3 32245.5 32061.7 31828.7
          31557.7 31262.5 30960.1 30669.2 30408.9 30196.6 30045.9 29964.2 26024.7 25712.3 25085.7 24143.2
          22887.2 21329.1 19494.2 17420.5 15148.9 12703.8 10076 7202.61 3941.65 25910.4 25579.9 24914.8
          23909.2 22560.8 20878.6 18892 16653.7 14225.1 11645 8910.76 5960.1 2634.87 25694.3 25327.5
          24584.1 23447 21899.9 19940.9 17605 14980.3 12187.4 9299.33 6330.66 3233.53 -185.63 25402.9
          24982.2 24119.5 22774.2 20894.4 18440.3 15436.2 12040.4 8535 5053.67 1640.84 -1644 -5077.25
          25077.6 24588.7 23569.9 21935.4 19553.3 16267.8 12002.6 7013.75 2078.58 -2615.52 -7052.76 -10458.1
          -13395.9 24774.4 24211.9 23017.2 21030.6 17962.1 13348.4 6648.73 -2026.99 -10158 -17869.2 -26319.3
          -29265.8 -28766.9 24557.8 23932.9 22581.7 20252.8 16413.3 9954.43 -1257.57 -19503.5 -35633.4 -52781.7
          -90296.8 -89821.8 -63043.6 24487.9 23832.6 22403.3 19891.5 15573.8 7617.12 -9212.96 -50343 -83721.2
          -127474 -425619 -427272 -165219 24600.6 23959.9 22572.9 20178.2 16219.2 9529.35 -2187.4 -21674.3
          -40661.9 -65181.4 -139659 -431815 -435849 24895.6 24305 23046.8 20944.3 17671.1 12687.2 5282.32
          -4796.13 -15681.5 -29084.2 -52626.3 -105281 -152307 25344.1 24820.9 23724.7 21949.5 19323.7 15616.6
          10610.3 4305.17 -2942.95 -11724.6 -23832.8 -42008.4 -64732.2 25905.4 25452 24514.9 23033.5 20918.4
          18064.9 14387.2 9866.29 4515.57 -1946.03 -10177.4 -21168.4 -35790.5 26538.9 26149.9 25353.8 24115.6
          22386.7 20112.7 17246.6 13756 9596.1 4621.55 -1444.6 -8995.09 -18321.4 27210.8 26878.1 26201.8
          25161.2 23728.2 21871.6 19562.2 16774.2 13477.8 9624.59 5165.77 135.2 -5083.75 27894.8 27610.4
          27035.1 26156.4 24958.1 23422.3 21533.5 19281.4 16665.5 13706.7 10483.3 7207.5 4349.3 28570.9
          28328.1 27838.5 27095.3 26089.8 24813.9 23263.7 21445.1 19382.8 17137.4 14834.4 12701.2 11079.2
          29224 29017 28601.2 27973.3 27130.4 26071.8 24803.2 23342.7 21729.9 20039.9 18398.4 16986.7
          16015.2 29841.8 29666 29313.9 28785.3 28081.3 27206.8 26174.2 25008.5 23755.1 22487.1 21310
          20352.6 19737.7 30414.2 30265.4 29968.5 29525.2 28939.8 28220.8 27384.5 26458.5 25487 24533.5
          23679.2 23011.5 22601.8 30932.6 30807.1 30557.4 30186.8 29701.4 29112.1 28436.4 27701.7 26947.2
          26224.8 25594.5 25115.1 24829.2 31389.7 31283.8 31073.7 30763.8 30361.2 29877.7 29330.7 28745.3
          28155 27600.6 27126.2 26771.5 26563.4 31779.4 31689.5 31511.9 31251.2 30915.2 30515.5 30068.8
          29597.3 29128.8 28695.1 28328.9 28058 27900.1 32096.6 32019.4 31867.2 31644.9 31360.4 31024.8
          30653.5 30266 29885.2 29536.7 29245 29030.3 28905.2 32337.7 32269.8 32136.3 31942.2 31695.1
          31405.7 31088 30759.2 30439 30148.1 29905.9 29728.1 29624.2 32499.9 32438.1 32317 32141.3
          31918.5 31658.8 31375.5 31083.9 30801.6 30546.3 30334.4 30179 30087.9 32581.4 32522.7 32407.6
          32241 32030.2 31785.2 31518.5 31245 30980.9 30742.6 30545.1 30400.2 30315.1 25982.2 25668.4
          25038.8 24091.1 22826.3 21253.2 19392.5 17276.1 14937.7 12395 9628.99 6560.8 3019.54 25872.5
          25541.6 24875.8 23868.9 22517.6 20828.7 18825.7 16551.6 14056.6 11372.1 8486.23 5318.54 1677.04
          25666.1 25301.2 24562.2 23433.6 21900.3 19959.8 17639.2 15006.6 12155 9149.19 5997.05 2626.97
          -1192.07 25389.8 24974.9 24126.7 22810.3 20983 18614.6 15724.4 12424.6 8904.78 5293.32 1640.66
          -2052.37 -6072.2 25084.8 24608.2 23620.6 22053.3 19806.9 16777.1 12928.3 8427.13 3684.47 -1082.25
          -5768.5 -9983.25 -14100.4 24806 24264.3 23125.1 21268 18494.4 14534.3 9152.25 2496.62 -4504.23
          -11653.9 -19083.3 -24387.7 -28109.7 24615.3 24019.8 22750.8 20629.4 17324.4 12285.1 4776.36 -5471.56
          -16391.9 -28623.1 -45461.1 -54535.8 -56610.3 24568.8 23947.8 22616.1 20361.2 16763.3 11030.4 1795.71
          -12406.9 -27819.8 -48167.4 -97077.8 -125357 -135438 24700.3 24091.6 22792.6 20614.8 17206.8 11971.7
          4064.27 -7050.6 -19857 -36603.9 -68516.8 -144661 -428442 25010.5 24446 23254.8 21300.6 18352.5
          14074.6 8095.3 289.964 -8913.04 -20392.1 -37418.3 -66381.4 -119169 25473.5 24970.6 23922.9 22243.3
          19797.4 16415.6 11943.3 6341.82 -303.832 -8301.84 -18515.6 -32099.8 -49864.1 26049.8 25613.2 24713.7
          23299.2 21295.3 18617.1 15194.6 11003.8 6048.45 228.351 -6667.23 -14821.3 -24167.1 26699 26325.2
          25562 24379.3 22736.5 20590.2 17906.4 14671.1 10884 6532.97 1612.31 -3803.67 -9407.7 27385.7
          27068 26423.7 25435.8 24082.8 22343.1 20202.1 17658.3 14726.3 11441.4 7884.29 4233.68 863.424
          28082.1 27813 27269.9 26444.1 25325.2 23904.4 22180 20162.2 17881.2 15397.9 12825.5 10359.9
          8310.4 28766.9 28539.4 28082.2 27391.6 26464.2 25299.8 23905.3 22300.4 20524.9 18649.3 16787.9
          15108.5 13825.2 29424.1 29232.2 28847.9 28270.8 27502.1 26547.2 25419 24142.6 22761.6 21345
          19992.2 18830.6 17997.1 30041.6 29880.1 29557.6 29076.1 28439.8 27657.6 26745.8 25731.6 24657.6
          23585 22593.6 21774.7 21213 30609.8 30474.1 30204 29802.9 29276.9 28637 27900.7 27094.9
          26258.1 25441.6 24706.7 24116.9 23725.2 31121.1 31007.1 30781 30447 30012.3 29488.6 28893.3
          28251.4 27596.3 26969.4 26416.6 25982.3 25700.3 31569.2 31473.3 31283.6 31004.7 30644.3 30214.1
          29730.5 29215.9 28698.4 28210.8 27787.6 27460.1 27250.5 31949.4 31868.1 31707.7 31473 31171.8
          30815.1 30418.2 30000.4 29585.4 29199.2 28867.8 28614 28453.2 32257.7 32187.8 32050.2 31849.8
          31593.9 31293.1 30961.2 30615.1 30274.5 29960.5 29693.4 29490.2 29362.2 32491.3 32429.8 32308.9
          32133.4 31910.4 31649.8 31364.1 31068.3 30779.4 30514.8 30291 30121.5 30015 32648.1 32592.1
          32482.1 32322.9 32121.3 31886.6 31630.5 31366.7 31110.2 30876.5 30679.4 30530.6 30437.2 32726.9
          32673.5 32569 32417.8 32226.6 32004.6 31763 31514.7 31274 31055 30870.7 30731.6 30644.4
          26012 25699.8 25073.1 24128.7 22866.1 21291.3 19420.6 17280.1 14897.8 12286.8 9422.13 6216.53
          2487.77 25908.7 25580.5 24920 23920.6 22577.8 20895.2 18890.8 16599.4 14063 11308 8315.65
          4992.18 1126.84 25714.8 25355.1 24627.2 23516.2 22007.1 20095 17798.7 15171.3 12289.8 9214.86
          5944.41 2378.51 -1747.62 25457.1 25051.8 24224.7 22944.9 21174.7 18885.9 16088.2 12862 9355.59
          5703.24 1940.23 -2017.97 -6508.08 25175.8 24715 23764.2 22265.7 20138.7 17300.4 13717.9 9494.84
          4913.13 253.966 -4385.04 -8973.75 -13930.5 24923.5 24405.4 23323.5 21582.1 19031.9 15483.3 10780.9
          4992.86 -1380.83 -7798.29 -14151.9 -19914.4 -25592.9 24758.4 24193.9 23002.8 21049.3 18101.5 13816
          7795.68 -100.403 -9133.4 -18439.5 -28450.8 -36954.3 -44596.4 24732.6 24146.1 22902.8 20844.3 17688.1
          12977.6 6082.17 -3493.57 -15006.5 -27667.2 -44278.8 -59814.8 -76092.6 24877.4 24301.3 23083.1 21077.2
          18030.7 13555 7152.36 -1538.39 -12211.2 -24828.2 -41807.5 -67170.7 -117091 25195.1 24657.5 23529.9
          21700.3 18985.9 15130.2 9843.66 2939.24 -5512.83 -15613.4 -28247.4 -44794.3 -68038.3 25662.5 25180.7
          24180.2 22584.7 20278 17110.6 12930.4 7642.18 1242.99 -6301.61 -15101.9 -25095.3 -36593.6 26242.9
          25823.1 24959.6 23604.8 21690 19133.5 15859 11821.4 7022.73 1502.96 -4605.91 -10992.8 -17452.9
          26896.5 26537.3 25804.4 24670 23096 21040.5 18469 15368.6 11762.2 7725.77 3429.9 -836.694
          -4760.14 27587.6 27283.6 26667.3 25723.8 24433.8 22778.7 20748.2 18350.1 15622.5 12651.6 9594.55
          6686.95 4214.26 28287.4 28031.6 27515.9 26733.4 25676.4 24340 22728.2 20860.8 18783.3 16579.3
          14381.9 12374.4 10771.6 28973.5 28759.1 28328.8 27680.7 26814 25732.3 24447.5 22985.4 21393
          19745.3 18150.5 16745.2 15676.7 29629.3 29450 29091.5 28555.1 27844.3 26967.2 25939.9 24790.4
          23562.9 22322 21152.6 20153.3 19421.1 30242.4 30092.7 29794.5 29350.7 28767.5 28055.3 27232
          26324.9 25373.7 24432 23564.7 22842.1 22327.2 30803.8 30678.8 30430.7 30063.6 29584.6 29005.5
          28343.8 27625.1 26883.6 26162.7 25511.5 24979.8 24608.8 31306.3 31201.9 30995.3 30691 30296.8
          29824.3 29290.4 28717.6 28135.1 27577.4 27081.6 26683.1 26409.3 31744.8 31657.3 31484.5 31231.1
          30904.9 30517.1 30083 29622.6 29160 28722.6 28338.7 28033.9 27827 32115.3 32041.3 31895.4
          31682.4 31409.7 31087.9 30730.7 30355.3 29982 29632.7 29329.2 29090.3 28929.7 32414.8 32351.2
          32226.1 32044.1 31812.2 31540.2 31240.4 30927.8 30619.6 30333.4 30086.6 29893.8 29765 32641.2
          32585.1 32475.1 32315.6 32113.1 31876.7 31617.7 31349.4 31086.3 30843.6 30635.5 30473.6 30366.1
          32792.8 32741.7 32641.6 32496.6 32313.2 32099.9 31867 31626.7 31392.1 31176.7 30992.5 30849.8
          30755.3 32868.9 32820.2 32724.9 32587.2 32413.1 32211 31990.9 31764.2 31543.5 31341.1 31168.5
          31034.9 30946.6 26107.2 25798.7 25178.9 24243.8 22990.9 21423.4 19553.5 17403.1 14997.2 12347.7
          9429.71 6157.94 2360.04 26010.7 25687.3 25035.9 24049.2 22720.7 21050.2 19050.6 16750.9 14190.3
          11395.4 8345.88 4945.35 986.643 25830.5 25477.8 24763.6 23672.7 22187.9 20299.3 18017.4 15385.8
          12479.1 9365.43 6037.17 2375.38 -1898.48 25592.2 25197.4 24391.6 23144.5 21416.7 19173.1 16408.2
          13183.5 9648.49 5977.13 2187.34 -1878.12 -6607.21 25334.6 24888.9 23970.1 22522.9 20467 17710.7
          14191.8 9968.55 5334.83 748.362 -3749.13 -8388.11 -13705.5 25107.4 24609.7 23572.2 21905.6 19465.7
          16053.1 11455.2 5619.25 -941.425 -6961.76 -12511.8 -17987.3 -24131.4 24965.1 24425.5 23290 21433.4
          18636.1 14545.7 8661.03 525.99 -9263.24 -17262.2 -24364.7 -31268.5 -38986.5 24956 24396.6 23213.6
          21261.8 18274.2 13784.7 7011.4 -3134.94 -16732.4 -26683.9 -36180.5 -45994.8 -57478.1 25109.8 24559.3
          23397.3 21487.7 18586.1 14285.6 7958.83 -1147.12 -13065 -25120.6 -37640 -51441.8 -69125.9 25429.5
          24913.8 23832.7 22078.4 19467.4 15719.2 10451.8 3270.13 -5902.79 -16401.6 -27839.7 -39408.4 -52217
          25894.8 25430.8 24466.8 22926.9 20689.3 17582.3 13392.5 7910.03 1030.1 -7118.7 -16022.8 -23906.2
          -31443.7 26471.4 26066.2 25232 23919.9 22055.8 19542.1 16267.7 12132 7092.86 1263.22 -4866.7
          -10206.8 -14770.4 27121 26774.5 26066.8 24969 23439.5 21427.9 18883.8 15773.9 12114.9 8037.86
          3895.49 257.808 -2666.15 27808.4 27516 26923.1 26014.1 24768.5 23164.5 21186.7 18839 16166.2
          13289.1 10441.8 7939.07 5993.02 28504.1 28259.5 27766.3 27017.9 26006.5 24727.2 23183.4 21396.5
          19418.6 17349.2 15345.4 13598.6 12269.5 29185.2 28981.6 28573.2 27958.6 27137.8 26115.1 24903.4
          23530.4 22045.8 20528.7 19088 17848.5 16921.2 29834.6 29665.6 29328.1 28823.9 28157.3 27337.3
          26380.8 25316.2 24187.5 23056.7 22001.9 21107.4 20447.8 30439.9 30299.8 30021.1 29607.4 29065.1
          28405.4 27646 26813.8 25946 25091.3 24306.6 23650.3 23172.4 30992 30875.9 30645.6 30305.6
          29863.3 29330.4 28724.1 28068.2 27394.1 26739.7 26147.3 25658 25305.5 31484.5 31388 31197.2
          30916.9 30554.6 30121.8 29634.3 29112.9 28583.5 28075.9 27621.9 27250.9 26986.3 31912.8 31832.2
          31673.2 31440.5 31141.7 30787.3 30391.6 29972.4 29551.2 29151.7 28797.8 28511.2 28308.6 32273.5
          32205.5 32071.6 31876.4 31627 31333.1 31007.3 30665.1 30324.2 30003.6 29722 29495.8 29336.9
          32564.3 32505.9 32391.3 32224.6 32012.5 31764 31490.2 31204.6 30922.1 30658.3 30428.1 30244.3
          30116.1 32783.6 32732.2 32631.5 32485.4 32300.1 32083.9 31847 31601 31359.1 31134.4 30939.4
          30784.4 30676.9 32930.4 32883.5 32791.8 32659 32491.1 32295.6 32082.2 31861.5 31645.2 31445.1
          31272 31134.9 31040.1 33003.9 32959.3 32872 32745.8 32586.3 32401 32199 31990.6 31786.7
          31598.4 31435.8 31307.3 31218.7 26259.2 25956.1 25346.7 24425.8 23189.2 21636.9 19777.6 17630.3
          15219.2 12558.8 9630.06 6360.25 2605.94 26169.9 25852.7 25213.5 24243.4 22933.7 21280.4 19291.2
          16991.5 14420.9 11611.3 8548.32 5145.33 1223.5 26003.3 25658.6 24960.1 23890.7 22429.8 20560.9
          18285.4 15640.4 12706.3 9570.67 6229.64 2561.64 -1689.87 25784.1 25399.9 24614.8 23396.1 21698.3
          19473 16693.6 13405.3 9782.05 6080.33 2308.57 -1743.31 -6467.18 25548.8 25116.9 24224.9 22813.8
          20791.5 18035.8 14426.5 9960.34 5004.28 398.392 -3914.41 -8411.28 -13702.1 25344.2 24863.5 23858.7
          22234.2 19822 16351.6 11438.8 4754.29 -3095.83 -8960.29 -13630.6 -18455.5 -24330.4 25221.2 24700.9
          23602.1 21789.1 18999.3 14730 8017.05 -2746.09 -17884 -24395.9 -28214.6 -32950.5 -39360.3 25225.2
          24685.8 23540.5 21630 18627.5 13836.2 5603.05 -10361.6 -43012.2 -44545.9 -45987.3 -50857.6 -57755.5
          25384.1 24852.8 23726.8 21857.1 18950 14428 7126.31 -5163.57 -24576.8 -41051.2 -53413.9 -62489.5
          -69413.5 25701.7 25203.2 24154.1 22436.8 19834.1 15966.5 10192.7 1567.96 -10644 -24971.2 -39449.5
          -48740.3 -55641.6 26159.8 25710.5 24773.9 23266.6 21045.1 17880.6 13427.9 7213.18 -1292.32 -12409.5
          -25414.7 -31026.1 -34814.3 26726.5 26333.9 25523.2 24240.3 22397.3 19864.6 16463.3 11966.5 6135.27
          -1097.82 -8834.2 -13377 -16137.6 27365.4 27030 26343.2 25273 23769.7 21766 19179.7 15924.9
          11952.8 7377.4 2793.57 -511.071 -2628.66 28042.1 27759.9 27186.5 26304.7 25089.9 23512.3 21543.3
          19168.3 16416.9 13425.4 10529.3 8226.07 6652.8 28727.4 28492.2 28017.9 27296.6 26319 25076.9
          23569.1 21811.3 19854.1 17808.1 15864.6 14255.2 13109.2 29398 29203.4 28813 28225.1 27439.2
          26458.3 25294 23972.3 22542.8 21088.2 19725.1 18581.1 17748.5 30036.7 29876.2 29555.8 29077.1
          28444.5 27666.5 26759.4 25750.6 24683.2 23618 22631.4 21802.4 21193.5 30630.9 30498.7 30235.8
          29845.9 29335.3 28715 28002 27222 26410.4 25612.7 24881.9 24270.2 23819.9 31171.7 31062.7
          30846.9 30528.4 30114.7 29617.1 29051.9 28441.6 27815 27206.9 26655.2 26196.2 25859 31653
          31562.9 31384.9 31123.7 30786.5 30384.4 29932.2 29449 28958.4 28487.3 28063.7 27713.5 27457.1
          32070.5 31995.5 31847.8 31631.8 31354.8 31026.6 30660.5 30272.8 29882.9 29511.7 29180.5 28908.5
          28710.4 32421.3 32358.2 32234.2 32053.5 31822.8 31551.2 31250.2 30933.9 30618.1 30319.7 30055.3
          29839.4 29683 32703.6 32649.6 32543.6 32389.5 32193.6 31964.1 31711.2 31447.1 31185 30938.9
          30722.1 30546 30419 32916.2 32868.7 32775.6 32640.7 32469.7 32270 32051 31823.4 31598.6
          31388.6 31204.4 31055.4 30948.5 33058.3 33015 32930.3 32807.7 32652.7 32472.2 32274.8 32070.3
          31869.1 31681.7 31517.8 31385.7 31291.3 33129.4 33088.2 33007.6 32891.1 32743.9 32572.7 32385.9
          32192.6 32002.8 31826.2 31672.2 31548.2 31459.8 26459.4 26163.4 25567.8 24666.4 23453.2 21925.9
          20089.8 17961.4 15564.5 12917.9 10012.5 6795.97 3163.8 26377.3 26068.1 25444.2 24496 23212.3
          21585.6 19619.4 17335 14772.3 11970.4 8925.88 5572.98 1776.83 26224.4 25889.3 25209.4 24166.1
          22735.6 20895.2 18637.5 15992.3 13043.1 9898.01 6566.96 2944.65 -1173.74 26023.9 25651.6 24889.6
          23702.8 22039.7 19838.7 17051.8 13702.1 9976.96 6223.74 2464.83 -1532.43 -6104.06 25810 25392.7
          24528.6 23154.9 21166.6 18409.9 14698.4 9934.52 4500.72 -247.689 -4426.74 -8768.59 -13824.9 25626.3
          25162.6 24190 22605.1 20213.1 16662.2 11344.1 3422.93 -6927.5 -12877.7 -16467.5 -20586.4 -25826.5
          25520.2 25018.6 23954.1 22177.8 19375.2 14852.4 6917.02 -8889.39 -41718.1 -42380.3 -38811.7 -40528.2
          -44538.4 25534.1 25013.9 23903 22024.1 18974.9 13729.2 2898.9 -30907 -236863 -113141 -78940.7
          -74835.4 -72167.2 25694.6 25181.8 24089.2 22251.9 19317 14486.3 5728.16 -12829.9 -57052.6 -105251
          -126592 -128722 -100912 26006 25524.4 24506.1 22822 20217.1 16193.3 9747.93 -1128.61 -19834.9
          -47577.3 -78884.2 -85308.1 -81777 26451.9 26017.4 25107.9 23632.1 21422.7 18185.3 13398.1 6106.5
          -5582.36 -26081.4 -66037.5 -56117.1 -51445.8 27003 26623 25835.8 24581.8 22758.4 20199.4 16637.3
          11629.9 4412.81 -6232.84 -20246.9 -22782.1 -22658.9 27625 27300.4 26634.3 25590.8 24111.7 22110.6
          19463.6 15999.7 11507.6 5881.5 -115.766 -3237.49 -4494.21 28284.8 28012.1 27457.2 26600.7 25413.1
          23855.5 21881.3 19445.6 16534.4 13257 10054 7795.79 6512.51 28953.8 28727.3 28269.8 27572.6
          26623.7 25410.8 23925.4 22173 20193.6 18099 16117.5 14557.2 13531.3 29609 29422.3 29047.5
          28482.3 27725 26776.9 25646.4 24355.9 22952.2 21519.2 20183.2 19086.1 18312.8 30233.1 30079.8
          29773.7 29316.2 28710.9 27965.6 27094.9 26124.7 25095.9 24069 23120.5 22329.7 21753.4 30813.3
          30687.7 30437.9 30067.3 29581.9 28992.1 28313.9 27571.5 26798.5 26038.7 25342.5 24759.6 24328.4
          31341 31237.9 31033.7 30732.6 30341.5 29871.3 29337.3 28760.5 28168.1 27592.6 27069.1 26631.3
          26305.3 31809.9 31725.1 31557.5 31311.5 30994.3 30616.1 30190.9 29736.4 29274.6 28830.1 28428.6
          28093.8 27844.3 32216.2 32145.8 32007.2 31804.7 31544.9 31237.3 30894.2 30530.7 30164.4 29814.6
          29500.6 29239.8 29045.8 32557.1 32498 32382 32213 31997.3 31743.3 31461.8 31165.7 30869.4
          30588.2 30337.2 30129.7 29975.9 32831 32780.6 32681.6 32537.9 32355 32140.8 31904.6 31657.4
          31411.5 31179.5 30973.4 30803.7 30678.4 33037.1 32992.8 32906.1 32780.3 32620.9 32434.7 32230.3
          32017.3 31806.4 31608.2 31432.8 31289 31183.1 33174.7 33134.4 33055.6 32941.4 32797 32628.7
          32444.5 32253.2 32064.2 31887.3 31731.1 31603.4 31509.8 33243.6 33205.3 33130.3 33021.8 32884.7
          32725.2 32550.7 32369.9 32191.6 32024.9 31878 31758.1 31670.3 26698.9 26411.6 25833.4 24957.4