<?xml version="1.0"?>
<VTKFile type="UnstructuredGrid" version="0.1" byte_order="LittleEndian">
  <UnstructuredGrid>
    <Piece NumberOfCells="8450" NumberOfPoints="9828">
      <CellData Scalars="p (Pa)">
        <DataArray type="Float32" Name="p (Pa)" NumberOfComponents="1" format="ascii">
          34757.4 34724.9 34710.4 34712.9 34730.4 34760 34798 34840.4 34883.2 34922.7 34955.4 34978.7
          34990.9 34745.8 34712.9 34698.2 34700.8 34718.5 34748.5 34787 34830 34873.4 34913.3 34946.4
          34970 34982.2 34723.7 34690.2 34675.2 34677.9 34696.1 34726.9 34766.3 34810.3 34854.6 34895.4
          34929.2 34953.4 34965.9 34693.9 34659.4 34644 34646.9 34665.8 34697.5 34738.2 34783.5 34829.2
          34871.2 34905.9 34930.7 34943.6 34660 34624.4 34608.5 34611.5 34631 34663.9 34706 34752.8
          34800 34843.2 34879.1 34904.6 34917.9 34626.4 34589.5 34573.1 34576.1 34596.3 34630.2 34673.6
          34721.9 34770.5 34815 34851.9 34878.2 34891.8 34597.8 34559.8 34542.7 34545.7 34566.4 34601.1
          34645.5 34694.9 34744.6 34790.2 34827.9 34854.8 34868.7 34578.9 34539.9 34522.3 34525.1 34545.8
          34580.9 34625.8 34675.9 34726.2 34772.4 34810.6 34837.8 34852 34573.6 34534.1 34516 34518.4
          34538.9 34573.8 34618.6 34668.6 34718.9 34765.1 34803.3 34830.5 34844.7 34585 34545.4 34527.1
          34529 34548.7 34582.8 34626.8 34675.9 34725.5 34771 34808.7 34835.5 34849.5 34614.7 34575.6
          34557.2 34558.5 34577.2 34609.9 34652.3 34699.8 34747.8 34792 34828.6 34854.6 34868.2 34663
          34625 34606.8 34607.4 34624.8 34655.7 34695.9 34741.1 34786.8 34828.9 34863.9 34888.9 34901.8
          34728.7 34692.4 34674.7 34674.8 34690.7 34719.3 34756.8 34799.2 34842.1 34881.7 34914.6 34938.1
          34950.4 34809.8 34775.5 34758.7 34758.4 34772.7 34799 34833.5 34872.6 34912.3 34949.1 34979.6
          35001.5 35012.8 34903.1 34871.4 34855.6 34855.1 34868 34891.8 34923.2 34958.9 34995.3 35028.9
          35056.9 35077 35087.4 35005.3 34976.3 34961.9 34961.2 34972.8 34994.3 35022.7 35055 35087.9
          35118.4 35143.9 35162.1 35171.6 35112.5 35086.4 35073.5 35072.9 35083.4 35102.7 35128.3 35157.3
          35187 35214.4 35237.3 35253.7 35262.2 35221 35197.9 35186.5 35186.2 35195.7 35213.1 35236.1
          35262.1 35288.7 35313.3 35333.8 35348.5 35356.1 35327.3 35306.9 35297.1 35297.2 35306 35321.7
          35342.4 35365.8 35389.5 35411.5 35429.8 35443 35449.8 35427.9 35410.2 35401.9 35402.4 35410.6
          35424.9 35443.6 35464.6 35485.9 35505.6 35522.1 35533.8 35539.9 35519.9 35504.5 35497.6 35498.6
          35506.3 35519.5 35536.5 35555.5 35574.8 35592.5 35607.3 35617.8 35623.3 35600.6 35587.3 35581.6
          35583 35590.4 35602.7 35618.3 35635.7 35653.2 35669.3 35682.7 35692.3 35697.2 35667.8 35656.2
          35651.5 35653.2 35660.5 35672 35686.6 35702.7 35718.8 35733.7 35745.9 35754.7 35759.3 35719.8
          35709.5 35705.6 35707.6 35714.6 35725.7 35739.4 35754.6 35769.7 35783.6 35795.1 35803.3 35807.5
          35755.2 35745.8 35742.4 35744.6 35751.5 35762.2 35775.5 35790 35804.5 35817.7 35828.6 35836.4
          35840.5 35773.1 35764.1 35761 35763.3 35770.2 35780.7 35793.7 35807.9 35822.1 35835 35845.7
          35853.3 35857.2 34645.8 34612 34597.3 34600.7 34620.1 34652.2 34693.2 34738.8 34784.8 34826.9
          34861.9 34886.8 34899.7 34632.7 34598.4 34583.5 34587.1 34606.8 34639.5 34681.1 34727.4 34773.9
          34816.6 34852 34877.3 34890.4 34607.8 34572.8 34557.6 34561.4 34581.7 34615.3 34658.1 34705.6
          34753.3 34797.1 34833.4 34859.2 34872.6 34574.1 34538 34522.4 34526.4 34547.6 34582.5 34626.8
          34676 34725.3 34770.5 34807.9 34834.5 34848.4 34535.6 34498.1 34482.1 34486.3 34508.5 34544.8
          34590.9 34641.8 34693 34739.8 34778.5 34806 34820.3 34497.1 34458.3 34441.6 34446.1 34469.1
          34506.7 34554.5 34607.3 34660.2 34708.6 34748.5 34776.9 34791.7 34464 34423.9 34406.6 34411.1
          34434.7 34473.4 34522.6 34576.8 34631.1 34680.8 34721.8 34750.9 34766.1 34441.5 34400.3 34382.4
          34386.7 34410.6 34449.9 34499.8 34554.9 34610.1 34660.5 34702.1 34731.7 34747.1 34434 34392.1
          34373.7 34377.7 34401.3 34440.5 34490.4 34545.6 34600.8 34651.4 34693.1 34722.7 34738.1 34445
          34403 34384.2 34387.6 34410.5 34448.8 34497.8 34552 34606.5 34656.3 34697.5 34726.8 34742
          34476.1 34434.6 34415.7 34418.4 34440 34476.8 34524 34576.4 34629.1 34677.5 34717.5 34745.9
          34760.7 34527.5 34487.2 34468.5 34470.4 34490.5 34525 34569.7 34619.5 34669.7 34715.8 34753.9
          34781.1 34795.3 34597.9 34559.4 34541.2 34542.4 34560.7 34592.6 34634.2 34680.7 34727.7 34771
          34806.8 34832.4 34845.7 34684.7 34648.5 34631.2 34631.8 34648.2 34677.4 34715.5 34758.3 34801.7
          34841.7 34874.9 34898.7 34911 34784.5 34751.1 34734.9 34735.1 34749.8 34776.2 34810.8 34849.7
          34889.3 34925.8 34956.2 34977.9 34989.2 34893.5 34863.1 34848.3 34848.4 34861.5 34885.2 34916.3
          34951.5 34987.2 35020.2 35047.7 35067.3 35077.6 35007.6 34980.4 34967.2 34967.3 34979.1 35000.3
          35028.2 35059.7 35091.7 35121.4 35146 35163.7 35172.9 35122.9 35098.8 35087.3 35087.6 35098.3
          35117.4 35142.4 35170.5 35199.1 35225.6 35247.6 35263.4 35271.6 35235.6 35214.5 35204.7 35205.3
          35215.2 35232.4 35254.7 35279.9 35305.4 35329 35348.7 35362.7 35370 35342.1 35323.9 35315.6
          35316.7 35325.8 35341.4 35361.6 35384.2 35407 35428.1 35445.6 35458.2 35464.7 35439.3 35423.6
          35416.8 35418.3 35426.9 35441.3 35459.6 35480 35500.5 35519.5 35535.2 35546.4 35552.3 35524.6
          35511 35505.5 35507.3 35515.6 35528.9 35545.7 35564.3 35583 35600.2 35614.4 35624.6 35629.8
          35595.5 35583.7 35579.2 35581.4 35589.4 35601.9 35617.6 35634.8 35652 35667.7 35680.8 35690.1
          35694.9 35650.3 35639.9 35636.2 35638.7 35646.5 35658.4 35673.2 35689.3 35705.4 35720.1 35732.3
          35741 35745.5 35687.6 35678.1 35674.9 35677.6 35685.3 35696.9 35711 35726.5 35741.9 35755.9
          35767.5 35775.8 35780 35706.5 35697.4 35694.6 35697.3 35705 35716.3 35730.2 35745.3 35760.4
          35774.1 35785.4 35793.4 35797.6 34450 34413.5 34398.5 34403.9 34427.2 34464.7 34511.9 34564.1
          34616.3 34664.1 34703.6 34731.8 34746.4 34433.7 34396.7 34381.5 34387.1 34410.9 34449.2 34497.3
          34550.3 34603.4 34652 34692.1 34720.7 34735.5 34402.8 34364.8 34349.4 34355.4 34380.2 34419.8
          34469.5 34524.3 34579 34629 34670.3 34699.6 34714.8 34360.7 34321.3 34305.5 34312 34338.1
          34379.6 34431.6 34488.6 34545.6 34597.5 34640.3 34670.7 34686.5 34312.2 34271.1 34254.8 34261.9
          34289.4 34333.1 34387.6 34447.3 34506.8 34560.9 34605.5 34637.1 34653.5 34263.3 34220.4 34203.4
          34211 34240 34285.7 34342.8 34405.1 34467.1 34523.4 34569.7 34602.6 34619.6 34220.4 34175.8
          34158.1 34166 34196.1 34243.6 34302.7 34367.3 34431.3 34489.6 34537.4 34571.2 34588.8 34190
          34144 34125.6 34133.5 34164.2 34212.7 34273.1 34339.1 34404.5 34464 34512.7 34547.3 34565.2
          34177.9 34130.9 34111.9 34119.3 34149.9 34198.5 34259.1 34325.4 34391.2 34450.9 34500 34534.7
          34552.7 34187.9 34140.7 34121.2 34127.9 34157.6 34205.1 34264.7 34330 34394.9 34453.9 34502.4
          34536.8 34554.6 34222.1 34175.5 34155.7 34161.4 34189.4 34235 34292.3 34355.3 34418.1 34475.3
          34522.4 34555.8 34573.1 34280.3 34235.1 34215.4 34220 34245.9 34288.5 34342.5 34402.2 34461.8
          34516.2 34561.1 34593 34609.5 34360.5 34317.6 34298.3 34301.8 34325.2 34364.4 34414.4 34469.8
          34525.4 34576.4 34618.4 34648.3 34663.9 34459.4 34419.3 34401 34403.6 34424.5 34460 34505.5
          34556.2 34607.3 34654.2 34692.9 34720.6 34734.9 34572.8 34536 34519 34520.9 34539.4 34571.2
          34612.3 34658.1 34704.4 34747 34782.3 34807.4 34820.5 34696.1 34662.8 34647.4 34649 34665.4
          34693.8 34730.5 34771.5 34813 34851.3 34883.1 34905.8 34917.6 34824.7 34795.1 34781.5 34782.9
          34797.6 34822.8 34855.5 34892.1 34929.1 34963.2 34991.5 35011.8 35022.3 34954 34928 34916.3
          34917.9 34931.1 34953.6 34982.7 35015.2 35048 35078.3 35103.5 35121.5 35130.9 35079.8 35057.4
          35047.5 35049.3 35061.4 35081.6 35107.5 35136.4 35165.6 35192.5 35214.8 35230.8 35239.1 35198.5
          35179.2 35171.1 35173.3 35184.5 35202.8 35226 35251.8 35277.8 35301.7 35321.5 35335.7 35343.1
          35306.5 35290.1 35283.5 35286.1 35296.6 35313.3 35334.3 35357.5 35380.8 35402.2 35419.9 35432.6
          35439.1 35401 35387 35381.8 35384.8 35394.7 35410.2 35429.4 35450.5 35471.6 35490.9 35506.9
          35518.2 35524.2 35479.6 35467.5 35463.4 35466.7 35476.3 35490.8 35508.6 35528 35547.3 35565
          35579.6 35590 35595.4 35540.2 35529.5 35526.3 35529.9 35539.2 35553 35569.7 35587.9 35606
          35622.5 35636.1 35645.7 35650.7 35581.4 35571.7 35569.1 35572.8 35581.9 35595.3 35611.4 35628.8
          35646 35661.7 35674.6 35683.7 35688.5 35602.2 35593.1 35590.7 35594.5 35603.6 35616.7 35632.4
          35649.4 35666.2 35681.5 35694.1 35703 35707.6 34166.4 34125.7 34110.4 34119.1 34148.6 34194.6
          34251.7 34314.2 34376.4 34433 34479.6 34512.7 34529.9 34144.9 34103.5 34088.1 34097.1 34127.5
          34174.6 34233 34296.8 34360.3 34418 34465.5 34499.1 34516.6 34103.9 34061.2 34045.5 34055.3
          34087.2 34136.6 34197.5 34263.8 34329.6 34389.4 34438.5 34473.3 34491.4 34047.6 34003.1 33987
          33997.8 34031.9 34084.3 34148.6 34218.4 34287.5 34350.1 34401.5 34437.8 34456.6 33982.2 33935.4
          33918.8 33930.8 33967.4 34023.2 34091.5 34165.4 34238.2 34304.1 34358.1 34396.2 34415.9 33915.4
          33866.1 33848.8 33861.8 33901 33960.3 34032.6 34110.6 34187.3 34256.5 34313 34352.9 34373.6
          33855.7 33803.9 33785.8 33799.7 33841 33903.3 33979.1 34060.6 34140.6 34212.7 34271.5 34313
          34334.4 33811.8 33758 33739 33753.2 33795.8 33860 33938.1 34022.1 34104.4 34178.4 34238.8
          34281.4 34303.4 33791.4 33736.2 33716.4 33730.2 33772.9 33837.6 33916.4 34001.1 34084.1 34158.9
          34219.9 34263 34285.2 33799.8 33744.2 33723.6 33736.4 33777.9 33841.3 33918.8 34002.4 34084.5
          34158.5 34219 34261.6 34283.7 33839.3 33784.4 33763.3 33774.5 33813.6 33874.1 33948.4 34029
          34108.4 34180.1 34238.8 34280.3 34301.7 33909 33856 33834.8 33844.2 33880 33936.2 34006
          34081.9 34157 34225 34280.9 34320.4 34340.8 34005.8 33955.6 33935 33942.5 33974.6 34025.8
          34089.8 34159.9 34229.6 34292.9 34345 34382 34401.1 34124.8 34078.3 34058.6 34064.6 34093
          34138.9 34196.7 34260.3 34323.8 34381.7 34429.5 34463.5 34481.1 34260.4 34218.1 34199.9 34204.8
          34229.6 34270.4 34321.9 34378.9 34436 34488.3 34531.5 34562.3 34578.2 34406.8 34369 34352.7
          34356.8 34378.7 34414.6 34460.3 34510.9 34561.7 34608.3 34646.9 34674.4 34688.8 34558.3 34525.2
          34511 34514.7 34534.1 34565.8 34606.1 34650.8 34695.7 34737 34771.2 34795.6 34808.3 34709.9
          34681.2 34669.2 34672.9 34690.2 34718.3 34753.9 34793.3 34832.9 34869.3 34899.4 34921 34932.2
          34856.6 34832.1 34822.3 34826.2 34841.8 34866.9 34898.4 34933.2 34968.1 35000.2 35026.8 35045.7
          35055.6 34994.4 34973.6 34965.8 34969.9 34984.4 35006.9 35035 35065.9 35096.8 35125.1 35148.6
          35165.3 35174 35119.3 35101.9 35095.8 35100.3 35113.7 35134.2 35159.5 35187.1 35214.7 35239.9
          35260.7 35275.5 35283.2 35228.3 35213.6 35209.1 35213.9 35226.6 35245.4 35268.4 35293.4 35318.2
          35340.9 35359.5 35372.8 35379.7 35318.7 35306.2 35302.9 35307.9 35320 35337.6 35358.9 35381.8
          35404.5 35425.1 35442.1 35454.2 35460.5 35388.3 35377.5 35375.1 35380.3 35392 35408.7 35428.6
          35450.1 35471.2 35490.3 35506.1 35517.3 35523.1 35435.6 35425.8 35424 35429.4 35440.9 35457
          35476.1 35496.5 35516.6 35534.7 35549.7 35560.3 35565.8 35459.5 35450.3 35448.8 35454.3 35465.6
          35481.4 35500 35520 35539.5 35557.2 35571.8 35582.1 35587.4 33789.6 33743.3 33727.8 33741.3
          33780 33838.2 33909.4 33986.6 34062.8 34131.8 34188.4 34228.5 34249.2 33760 33712.8 33697.1
          33711.4 33751.4 33811.5 33884.7 33963.9 34042 34112.6 34170.5 34211.4 34232.6 33703.5 33654.3
          33638.5 33654.2 33696.9 33760.4 33837.6 33920.6 34002.3 34076 34136.3 34178.8 34200.8 33625.2
          33573.5 33557.4 33574.9 33621.3 33689.8 33772.3 33860.8 33947.4 34025.4 34088.9 34133.8 34156.9
          33533.3 33478.2 33461.7 33481.5 33532.3 33606.5 33695.4 33790.3 33882.8 33965.7 34033.1 34080.6
          34105.1 33437.9 33379.1 33362 33384 33439.4 33519.6 33615.2 33716.6 33815.1 33903.1 33974.6
          34024.7 34050.6 33351.1 33288.6 33270.6 33294.5 33353.9 33439.5 33540.9 33648.2 33752.1 33844.7
          33919.6 33972.2 33999.3 33285.3 33219.6 33200.5 33225.5 33287.5 33376.7 33482.4 33593.8 33701.5
          33797.4 33875 33929.4 33957.4 33251.6 33183.6 33163.3 33188.1 33250.7 33341.2 33448.3 33561.4
          33670.8 33768.1 33846.9 33902.1 33930.6 33257.5 33188.8 33167.2 33190.4 33251.3 33340.1 33445.7
          33557.5 33665.8 33762.3 33840.6 33895.5 33923.8 33305.6 33237.8 33215.4 33235.9 33293 33377.2
          33478.2 33585.7 33690.3 33783.8 33859.8 33913.2 33940.8 33393.8 33328.7 33305.8 33323.2 33374.9
          33452.6 33546.6 33647.2 33745.7 33834.2 33906.3 33957.1 33983.3 33516.5 33455.4 33432.9 33447.1
          33492.9 33562.8 33648.2 33740.3 33831 33912.9 33979.9 34027.2 34051.7 33666.2 33610.3 33588.9
          33600.4 33640.2 33702 33778.3 33861.1 33943.1 34017.4 34078.5 34121.8 34144.2 33835.1 33784.9
          33765.4 33774.8 33809.3 33863.4 33930.6 34004 34077.1 34143.6 34198.3 34237.3 34257.5 34015.5
          33971.4 33954.2 33962.2 33992.2 34039.4 34098.2 34162.7 34227.1 34285.9 34334.5 34369 34387
          34200.6 34162.5 34147.8 34155.1 34181.4 34222.7 34274.1 34330.5 34386.9 34438.5 34481.1 34511.5
          34527.3 34384.2 34351.8 34339.8 34346.8 34370.1 34406.3 34451.3 34500.6 34549.9 34595 34632.3
          34658.9 34672.7 34560.8 34533.6 34524.2 34531.1 34552.2 34584.2 34623.8 34667 34710.1 34749.5
          34782.1 34805.3 34817.4 34725.6 34703.1 34696 34703 34722.3 34750.9 34786 34824.1 34861.9
          34896.5 34925.1 34945.4 34956 34874.5 34855.9 34850.8 34858.1 34875.9 34901.8 34933.1 34967
          35000.6 35031.1 35056.3 35074.2 35083.5 35003.9 34988.6 34985.2 34992.6 35009.3 35033 35061.4
          35091.9 35122 35149.2 35171.7 35187.6 35195.9 35110.9 35098.1 35096 35103.7 35119.5 35141.5
          35167.6 35195.4 35222.8 35247.6 35267.9 35282.3 35289.8 35193.2 35182.2 35181.1 35188.9 35204.1
          35224.9 35249.3 35275.2 35300.6 35323.5 35342.2 35355.5 35362.4 35248.9 35239.2 35238.8 35246.7
          35261.4 35281.4 35304.7 35329.4 35353.4 35375.1 35392.8 35405.4 35411.9 35277.1 35268 35267.9
          35275.8 35290.4 35309.9 35332.7 35356.7 35380.1 35401.2 35418.4 35430.6 35436.9 33312.9 33259.2
          33243.8 33264.3 33315.7 33390.9 33481.3 33578.2 33673.2 33758.7 33828.5 33877.8 33903.2 33271.3
          33216.3 33200.9 33222.7 33276.4 33354.5 33448 33548 33645.9 33733.8 33805.5 33856 33882.1
          33191.5 33133.9 33118.5 33142.8 33200.9 33284.6 33384.3 33490.3 33593.6 33686.1 33761.3 33814.2
          33841.5 33080.2 33018.7 33003.3 33031.1 33095.5 33187.2 33295.5 33409.9 33520.8 33619.8 33699.9
          33756.2 33785.2 32947.5 32881.1 32865.5 32897.7 32969.8 33071.1 33189.9 33314.5 33434.5 33541
          33627 33687.2 33718.2 32807.7 32735.5 32719.5 32756.3 32836.6 32948.4 33078.2 33213.5 33343
          33457.5 33549.6 33614 33647 32677.8 32599.7 32583 32623.8 32711.8 32833.1 32973.1 33118.1
          33256.4 33378.1 33475.8 33544 33579 32576.7 32493.1 32475.2 32518.7 32612.1 32740.4 32887.9
          33040.2 33185 33312.2 33414.2 33485.2 33521.7 32521.5 32434.1 32414.5 32458.2 32553.4 32684.4
          32835.1 32990.7 33138.6 33268.5 33372.7 33445.3 33482.5 32523.7 32435 32413.3 32454.6 32547.2
          32675.7 32824.4 32978.4 33125.1 33254.4 33358.3 33430.7 33467.9 32586.3 32499.1 32475.5 32512
          32598 32719.3 32860.8 33008.4 33149.8 33274.9 33375.8 33446.3 33482.5 32703.9 32620.9 32596.2
          32626.9 32703.7 32814.2 32944.6 33081.8 33214.3 33332.2 33427.7 33494.6 33529.1 32866.5 32789.7
          32765.1 32790 32856.8 32954.6 33071.6 33196 33317 33425.5 33513.7 33575.8 33607.9 33062.1
          32992.9 32969.5 32989.6 33046.7 33131.9 33234.8 33345.3 33453.6 33551.3 33631.1 33687.6 33716.8
          33279.4 33218.4 33197.3 33213.8 33262.5 33335.9 33425.4 33522.1 33617.5 33704.1 33775.1 33825.5
          33851.6 33508.2 33455.7 33437.5 33451.6 33493.3 33556.5 33633.8 33717.8 33801 33876.8 33939.2
          33983.6 34006.6 33740 33695.7 33680.9 33693.5 33729.7 33784.3 33851.1 33923.7 33995.9 34061.7
          34116.1 34154.7 34174.8 33967.8 33930.9 33919.4 33931.3 33963.2 34010.8 34068.7 34131.5 34194
          34251 34298.1 34331.6 34349 34185.1 34154.9 34146.5 34158.1 34186.7 34228.4 34279 34333.6
          34387.8 34437.2 34477.9 34506.9 34522 34386.7 34362.2 34356.5 34368 34394 34431.1 34475.5
          34523.4 34570.6 34613.6 34649 34674.2 34687.3 34567.8 34548.1 34544.7 34556.2 34580.1 34613.4
          34652.9 34695.2 34736.8 34774.5 34805.5 34827.5 34838.9 34724.6 34708.7 34707.2 34718.6 34740.9
          34771.2 34806.8 34844.7 34881.7 34915.2 34942.6 34962.1 34972.2 34853.8 34840.9 34840.8 34852.2
          34873.1 34901.2 34933.8 34968.1 35001.7 35031.9 35056.6 35074.1 35083.2 34952.9 34942.1 34943.1
          34954.4 34974.4 35000.7 35031.1 35063 35093.9 35121.8 35144.5 35160.5 35168.8 35020 35010.6
          35012.2 35023.5 35042.8 35068.1 35097 35127.2 35156.5 35182.8 35204.2 35219.3 35227.1 35053.8
          35045.1 35047.1 35058.4 35077.3 35102 35130.2 35159.6 35188.1 35213.6 35234.3 35249 35256.6
          32728 32665.2 32650.6 32681 32749.7 32847.3 32963 33085.7 33205 33311.8 33398.5 33459.5
          33491 32669.2 32604.6 32590.1 32622.7 32695.1 32797.3 32917.9 33045.4 33168.9 33279.3 33368.7
          33431.5 33463.9 32555.4 32487 32473 32510 32589.7 32700.9 32831.1 32967.8 33099.6 33216.7
          33311.4 33377.7 33411.9 32394.7 32320.5 32307.1 32350.5 32440.9 32565.3 32709.3 32859.1 33002.6
          33129.3 33231.4 33302.6 33339.2 32200.1 32118.2 32105.5 32157 32261 32401.7 32562.7 32728.7
          32886.2 33024.6 33135.5 33212.7 33252.2 31990.7 31899.6 31887.3 31947.9 32067.1 32226 32405.6
          32588.9 32761.6 32912.4 33032.6 33116.1 33158.8 31791.7 31690.4 31678 31747.5 31881.4 32057.7
          32255 32454.6 32641.6 32804 32933 33022.3 33068 31632.6 31521.8 31508.3 31584.3 31729.4
          31919 32129.9 32342.2 32540.1 32711.6 32847.5 32941.5 32989.6 31542 31424.3 31408.5 31486.2
          31635.8 31831.3 32048.6 32267.1 32470.7 32647.1 32786.9 32883.6 32933.1 31539.5 31419.4 31399.9
          31473.3 31618.6 31810.5 32025 32241.7 32444.3 32620.4 32760.3 32857.2 32906.8 31627.3 31510.1
          31486.7 31550.9 31684.2 31863.5 32066.3 32273.2 32468 32638.3 32774.2 32868.8 32917.2 31793.3
          31683.2 31657.2 31710.1 31826.8 31987.5 32172.1 32362.7 32544.1 32703.8 32832.2 32921.8 32967.9
          32018.2 31918.3 31891.6 31933.7 32032.7 32172.3 32335.4 32506 32670.1 32816 32934 33016.8
          33059.5 32282.3 32194.5 32169 32202.4 32285.1 32404.1 32545.2 32694.5 32839.7 32969.9 33076
          33150.8 33189.4 32569.2 32493.8 32471.3 32498.4 32567.5 32668.1 32788.7 32917.6 33044 33158.2
          33251.7 33317.9 33352.3 32865.6 32802.4 32783.9 32806.9 32865.3 32950.5 33053.2 33163.6 33272.5
          33371.4 33452.7 33510.5 33540.5 33161.4 33109.6 33095.4 33116 33166.1 33238.9 33326.5 33420.9
          33514.3 33599.2 33669.3 33719.2 33745.1 33448.6 33406.7 33396.8 33416 33459.9 33522.7 33597.9
          33678.8 33758.8 33831.6 33891.7 33934.5 33956.7 33720.2 33686.9 33680.8 33699.2 33738.3 33793.1
          33858.2 33927.9 33996.7 34059.2 34110.7 34147.3 34166.4 33970.3 33944.1 33941.2 33959.1 33994.4
          34042.8 34099.7 34160.3 34219.8 34273.7 34318.1 34349.6 34365.9 34193.8 34173.4 34173 34190.4
          34222.7 34265.9 34316.3 34369.5 34421.5 34468.4 34506.9 34534.2 34548.4 34386.4 34370.5 34372
          34389.1 34418.8 34458 34503.1 34550.4 34596.4 34637.9 34671.7 34695.7 34708.1 34544.4 34532
          34534.9 34551.6 34579.4 34615.4 34656.4 34699.3 34740.7 34777.9 34808.2 34829.6 34840.7 34665.3
          34655.3 34659.2 34675.5 34701.9 34735.5 34773.6 34813.1 34851.3 34885.3 34913.1 34932.6 34942.7
          34747 34738.5 34743.1 34759.1 34784.5 34816.6 34852.7 34890.1 34926 34958.1 34984.2 35002.5
          35012 34788.1 34780.4 34785.3 34801.2 34826.1 34857.4 34892.6 34928.9 34963.8 34994.8 35020
          35037.8 35047 32026.4 31952.7 31939.9 31983.8 32075.4 32202.4 32350.6 32506.2 32656.2 32789.6
          32897.4 32972.9 33011.8 31942.9 31866.5 31854.4 31902.1 31999.7 32133.8 32289.6 32452.3 32608.6
          32747.1 32858.9 32937 32977.2 31779.9 31698 31687.2 31742.5 31852.1 32000.7 32171.4 32348.1
          32516.7 32665.3 32784.6 32867.9 32910.6 31546.1 31455.5 31446.7 31513.5 31641.3 31811.2 32003.8
          32200.9 32387.2 32550.1 32680.3 32770.7 32817 31257.2 31154.5 31148.1 31230.2 31381.8 31579.4
          31799.7 32022.2 32230.3 32410.9 32554.2 32653.4 32704.1 30938 30819.6 30815.9 30916.3 31096.1
          31325.6 31577.2 31828 32060 32259.8 32417.4 32526 32581.4 30625.1 30488.4 30486.9 30606.8
          30815.6 31077.3 31359.8 31638.1 31893.2 32111.4 32282.8 32400.5 32460.4 30366.9 30211.8 30211
          30346.8 30579.6 30867.4 31174.8 31475.1 31748.8 31981.9 32164.5 32289.8 32353.4 30215.5 30046.7
          30043.1 30185.1 30429 30729.5 31049.5 31361.5 31645.6 31887.4 32076.8 32206.7 32272.8 30207.8
          30035.1 30024.4 30158.1 30394.5 30689.2 31005.4 31315.5 31599.1 31841.4 32031.9 32162.9 32229.6
          30343.3 30177.1 30157.7 30271.9 30484.7 30756.5 31053 31347.4 31619.4 31853.8 32039.1 32167.1
          32232.5 30592.3 30440.1 30414.2 30505.3 30686.2 30924.5 31190.2 31458.5 31709.8 31928.7 32103.3
          32224.6 32286.8 30917.2 30783.2 30754.6 30824.7 30973.3 31175.1 31405.1 31641.6 31866.4 32064.7
          32224.4 32336.2 32393.6 31285.1 31170.9 31143.5 31197.5 31318 31485.6 31680.3 31883.9 32080.3
          32255.4 32397.8 32498.1 32549.9 31672.1 31577.6 31554.3 31597.3 31695.5 31834.1 31997.4 32170.2
          32338.7 32490.5 32614.9 32703 32748.6 32062.4 31986.1 31968.3 32004.6 32086.1 32201.5 32338.2
          32484 32627.2 32757.1 32864.1 32940.1 32979.6 32444.9 32384.5 32372.7 32405 32474.4 32571.6
          32686.7 32809.8 32931.1 33041.4 33132.5 33197.4 33231.2 32811.1 32764.3 32757.9 32788 32848.3
          32931.4 33029.3 33133.7 33236.5 33330 33407.2 33462.3 33490.9 33154 33118.3 33116.6 33145.1
          33198.5 33270.6 33354.7 33443.9 33531.4 33610.9 33676.4 33723 33747.3 33467.4 33440.6 33442.4
          33469.6 33517.6 33580.9 33654 33731 33806.1 33874.1 33929.9 33969.6 33990.2 33745.8 33725.7
          33730.3 33756.3 33799.8 33856.1 33920.4 33987.5 34052.7 34111.4 34159.5 34193.5 34211.2 33984.4
          33969.5 33975.9 34000.8 34040.7 34091.4 34148.6 34208 34265.4 34316.8 34358.7 34388.4 34403.7
          34179.4 34168.3 34176 34199.9 34236.8 34283.1 34335 34388.5 34439.8 34485.7 34523 34549.3
          34562.8 34328.1 34319.6 34328.1 34351.1 34385.8 34428.9 34476.8 34525.9 34573 34614.8 34648.7
          34672.6 34684.9 34428.3 34421.5 34430.4 34452.8 34486 34526.9 34572.2 34618.5 34662.8 34702
          34733.7 34756.1 34767.6 34478.7 34472.7 34481.8 34503.9 34536.4 34576.2 34620.2 34665.1 34707.9
          34745.9 34776.6 34798.1 34809.3 31199.7 31113.1 31103.8 31166 31287.5 31451.9 31641.1 31837.6
          32025.5 32191.4 32324.8 32417.9 32465.7 31081.5 30991.1 30983.4 31051.8 31182.8 31358.3 31559
          31766 31963 32136.3 32275.3 32372.2 32421.8 30848.1 30749.7 30745.1 30826.4 30976.9 31175.2
          31398.6 31626.7 31841.8 32029.7 32179.6 32283.7 32337 30507 30395.6 30395.7 30497.4 30678.3
          30911.2 31168.9 31428.1 31669.6 31878.7 32044.3 32158.7 32217.1 30073.9 29942.8 29949.5 30080
          30302.9 30582.2 30884.8 31183.9 31458.8 31694.2 31879.3 32006.5 32071.2 29578.1 29419.5 29434.6
          29602.5 29878.3 30213.9 30569.2 30913.9 31226.4 31491.2 31697.9 31839.3 31911 29071.2 28876.9
          28901.6 29113.4 29448.1 29843.9 30253.7 30644.6 30994.5 31288.5 31516.5 31671.8 31750.5 28633.8
          28399.7 28432.7 28685.8 29073.9 29522 29977.9 30407.5 30788.7 31107.2 31353.3 31520.6 31605.2
          28369.5 28103.7 28136.8 28410.8 28826.9 29303 29784 30235.5 30635.5 30969.3 31227.2 31402.6
          31491.3 28360.7 28089.2 28106 28362.2 28764 29230.5 29706.5 30156.5 30557.5 30894 31155.1
          31333.2 31423.4 28594 28340.9 28335.7 28546 28897.8 29320.3 29761.6 30186.3 30569.9 30895.4
          31150.1 31324.8 31413.8 28994.6 28772.6 28750.9 28909.9 29197 29556.8 29944.1 30325.7 30677.1
          30979.7 31219.4 31385.2 31469.9 29485.7 29299.1 29270.1 29386.1 29611.8 29906.3 30233.2 30563.3
          30873.6 31145.5 31363.6 31516 31594.3 30013.1 29861.4 29833 29918.8 30094.7 30331.5 30601.2
          30879.6 31146.4 31383.9 31576.9 31712.9 31783.2 30545.2 30425.6 30403 30469.7 30608.9 30799.5
          31020.3 31252.1 31477.5 31680.7 31847.5 31965.9 32027.4 31065.3 30973.6 30959.1 31014.9 31128.4
          31283.8 31465.3 31657.6 31846.4 32017.9 32159.6 32260.7 32313.4 31564.2 31495.6 31489.4 31539.1
          31634.6 31763.9 31914.7 32074.9 32232.6 32376.4 32495.5 32580.7 32625.1 32035 31984.8 31985.7
          32031.7 32114.3 32224.1 32351.1 32485.5 32617.7 32738.1 32837.7 32909 32946.1 32471.2 32435.2
          32441.6 32484.8 32557.7 32652.5 32760.9 32874.8 32986.3 33087.4 33170.9 33230.5 33261.5 32866.7
          32841.3 32851.5 32892.2 32957.4 33040.2 33133.9 33231.5 33326.4 33412 33482.4 33532.5 33558.5
          33215.7 33198.1 33210.6 33248.9 33307.6 33380.9 33462.8 33547.5 33629.2 33702.5 33762.5 33805
          33827.1 33513.2 33501.1 33515 33551 33604.3 33669.9 33742.5 33817 33888.4 33952.2 34004.1
          34040.7 34059.7 33755.2 33747.1 33761.7 33795.5 33844.5 33904 33969.4 34036.1 34099.7 34156.2
          34202 34234.2 34250.9 33939 33933.5 33948.3 33980.4 34026.1 34081.1 34141.2 34202.2 34260.2
          34311.4 34352.9 34382 34397 34062.5 34058.6 34073.5 34104.4 34147.8 34199.8 34256.4 34313.7
          34368 34415.9 34454.6 34481.7 34495.6 34124.5 34121.4 34136.3 34166.6 34208.8 34259.3 34314.2
          34369.7 34422.2 34468.4 34505.7 34531.8 34545.3 30241.2 30140 30136.5 30222.9 30382.4 30593.6
          30833.2 31079.4 31312.8 31517.6 31681.4 31795.4 31853.8 30075.1 29968.7 29968.3 30064.8 30239.1
          30467.2 30723.7 30985.2 31231.7 31446.9 31618.5 31737.6 31798.5 29742.7 29625.1 29631.1 29749
          29954.5 30217.5 30508.3 30800.8 31073.3 31309.3 31496.3 31625.5 31691.4 29245.6 29108.4 29124.8
          29278.2 29534 29852.1 30195.8 30534.9 30846.3 31112.8 31322.2 31466.1 31539.2 28592.4 28422.9
          28455 28662.3 28991.6 29387 29802.3 30203 30564.6 30870.1 31107.8 31270.1 31352.3 27808.7
          27588.3 27643.2 27928 28357 28851.6 29354.9 29828.8 30248.8 30599 30868.9 31052.1 31144.5
          26957.3 26660.6 26748.3 27135.9 27687.4 28296 28895.3 29446.5 29926.9 30322.8 30625.6 30830
          30932.9 26170.5 25773.4 25901.5 26403.5 27078.9 27794.9 28480.7 29100.1 29633.4 30069.5 30401.3
          30624.7 30737 25670.8 25182.2 25334.9 25910.3 26660.9 27440.3 28177.5 28838.5 29405.7 29868.8
          30221 30458.2 30577.4 25682.5 25192.7 25297.7 25828 26549.1 27312.5 28043.7 28705.6 29278
          29748.4 30108.2 30351.5 30474.1 26137.9 25711.5 25749.8 26158.1 26764.2 27438.7 28106.9 28726.9
          29273.3 29729 30081.7 30322.1 30443.8 26834.1 26487.7 26480.4 26765.1 27232.3 27784.6 28355.7
          28903.3 29398.7 29820.7 30152.7 30381.5 30498.2 27612.4 27341.4 27314.7 27507.4 27853.7 28286.2
          28752.8 29215.6 29646.4 30022.3 30323.4 30533.6 30641.6 28389.2 28183.5 28155.8 28290.4 28547
          28880.8 29253.4 29634.1 29997.9 30322.4 30586.8 30773.7 30870.4 29131.4 28980 28961.5 29063.2
          29259.1 29519.1 29815.8 30125.5 30427.3 30701.1 30927.2 31088.5 31172.4 29830.3 29722.6 29716.7
          29801.2 29957.7 30165.3 30404.3 30656.5 30905 31132.6 31322 31458 31529 30485.1 30411
          30416.8 30492.2 30622.9 30793.7 30989.7 31196.9 31401.5 31589.4 31746.2 31859 31917.9 31093.8
          31044.5 31059.4 31129.1 31242 31386.1 31549.9 31722.1 31891.5 32046.6 32175.7 32268.5 32317
          31652.2 31620.4 31641.2 31706.2 31805.6 31929.6 32068.7 32213.5 32355 32483.7 32590.3 32666.6
          32706.4 32154.2 32134.6 32158.6 32219 32307.4 32415.4 32535.1 32658.4 32777.8 32885.6 32974.2
          33037.4 33070.3 32594.1 32582.6 32607.9 32663.6 32742.6 32837.7 32941.9 33048.3 33150.3 33241.7
          33316.4 33369.4 33396.9 32966.7 32960.5 32985.8 33037.1 33108.2 33192.8 33284.6 33377.7 33466.3
          33545 33609.1 33654.3 33677.7 33268.2 33265.5 33290.2 33337.5 33402.1 33478.3 33560.6 33643.4
          33721.9 33791.2 33847.3 33886.7 33907.1 33496 33495.5 33519.4 33563.6 33623.2 33693.2 33768.3
          33843.8 33914.9 33977.5 34027.9 34063.3 34081.5 33648.6 33649.3 33672.6 33714.6 33770.9 33836.6
          33907.1 33977.7 34044.1 34102.3 34149.2 34182 34198.8 33725.1 33726.4 33749.3 33790.1 33844.7
          33908.4 33976.6 34044.8 34108.8 34164.9 34210 34241.5 34257.8 29147.9 29030.7 29036.3 29153.6
          29360.3 29628.3 29928.4 30233.5 30520.3 30770.3 30969.4 31107.4 31177.9 28917.5 28793.6 28804.9
          28938.1 29167.2 29460.2 29784.5 30111.2 30416.3 30680.7 30890.3 31035.3 31109.3 28449.3 28310.2
          28333.7 28501.8 28779.2 29124.6 29499.1 29870.2 30212 30505.3 30736.1 30894.9 30975.7 27729.9
          27562 27606.6 27835.4 28194.2 28625.1 29079.1 29518.5 29916.1 30252.6 30514.7 30693.8 30784.6