<?xml version="1.0"?>
<VTKFile type="UnstructuredGrid" version="0.1" byte_order="LittleEndian">
  <UnstructuredGrid>
    <Piece NumberOfCells="8450" NumberOfPoints="9828">
      <CellData Scalars="p (Pa)">
        <DataArray type="Float32" Name="p (Pa)" NumberOfComponents="1" format="ascii">
          35686.9 35668 35631 35577.1 35508.2 35426.7 35335.8 35239.1 35140.4 35043.9 34953.7 34873.9
          34807.6 35683.6 35664.7 35627.4 35573.1 35503.6 35421.6 35329.9 35232.3 35132.7 35035.3 34944.2
          34863.5 34796.5 35677.5 35658.3 35620.6 35565.5 35495.1 35411.9 35318.8 35219.7 35118.3 35019.1
          34926.3 34844 34775.5 35669.3 35649.8 35611.4 35555.4 35483.7 35398.8 35303.9 35202.6 35099
          34997.4 34902.2 34817.6 34747.2 35660 35640.1 35601 35543.9 35470.8 35384.1 35287.1 35183.3
          35077.1 34972.7 34874.8 34787.7 34715.1 35650.9 35630.6 35590.8 35532.7 35458.1 35369.7 35270.5
          35164.4 35055.5 34948.5 34847.8 34758.1 34683.2 35643.2 35622.7 35582.3 35523.3 35447.5 35357.6
          35256.7 35148.6 35037.5 34928.1 34825.1 34733.1 34656.3 35638.5 35617.8 35577 35517.4 35440.9
          35350 35248 35138.5 35026 34915 34810.3 34716.8 34638.5 35637.8 35617 35576.2 35516.5
          35439.8 35348.7 35246.4 35136.6 35023.6 34912.1 34806.9 34712.7 34633.8 35642.1 35621.5 35581
          35521.7 35445.6 35355.1 35253.5 35144.5 35032.4 34921.6 34817.1 34723.6 34645 35652.3 35632
          35592.1 35533.9 35459.1 35370.2 35270.5 35163.5 35053.5 34944.9 34842.5 34750.8 34673.7 35668.6
          35648.9 35610.1 35553.4 35480.7 35394.4 35297.6 35193.9 35087.3 34982.3 34883.3 34794.6 34720.1
          35691.1 35672.1 35634.7 35580.2 35510.3 35427.4 35334.6 35235.3 35133.4 35033.1 34938.7 34854.2
          34783.3 35719.4 35701.3 35665.7 35613.8 35547.4 35468.7 35380.7 35286.7 35190.4 35095.8 35007
          34927.6 34861 35753 35735.9 35702.3 35653.4 35590.9 35516.9 35434.4 35346.4 35256.5 35168.5
          35085.9 35012.2 34950.5 35790.8 35774.8 35743.5 35697.8 35639.5 35570.7 35494.1 35412.6 35329.6
          35248.4 35172.5 35105 35048.6 35831.7 35816.9 35787.8 35745.6 35691.7 35628.3 35557.7 35483
          35406.9 35332.9 35263.8 35202.6 35151.6 35874.3 35860.7 35833.9 35795.1 35745.7 35687.6 35623.2
          35555.1 35486 35419 35356.6 35301.6 35255.9 35917.1 35904.7 35880.2 35844.8 35799.7 35746.8
          35688.3 35626.6 35564.2 35503.8 35447.9 35398.8 35358.1 35958.8 35947.4 35925.1 35892.8 35851.8
          35803.8 35750.8 35695 35638.9 35584.7 35534.8 35491 35455 35997.7 35987.3 35967 35937.5
          35900.2 35856.6 35808.6 35758.3 35707.7 35659.1 35614.5 35575.5 35543.7 36032.5 36023 36004.4
          35977.4 35943.4 35903.6 35860 35814.3 35768.5 35724.7 35684.6 35649.8 35621.5 36062 36053.2
          36036 36011.2 35979.8 35943.2 35903.1 35861.3 35819.5 35779.6 35743.3 35711.8 35686.5 36085.1
          36076.9 36060.8 36037.5 36008.2 35974.1 35936.7 35897.8 35859.1 35822.2 35788.7 35759.9 35736.7
          36101 36093.1 36077.8 36055.6 36027.7 35995.2 35959.7 35922.8 35886.2 35851.3 35819.7 35792.6
          35770.9 36109.1 36101.4 36086.4 36064.8 36037.6 36006 35971.4 35935.5 35899.9 35866 35835.4
          35809.2 35788.2 35623 35603.3 35564.5 35508 35435.7 35350.2 35254.7 35152.9 35049 34947.4
          34852.4 34768.2 34698.4 35619.5 35599.7 35560.6 35503.7 35430.8 35344.6 35248.2 35145.5 35040.5
          34937.8 34841.7 34756.5 34685.9 35613 35592.9 35553.3 35495.5 35421.6 35334 35236.1 35131.5
          35024.6 34919.8 34821.7 34734.6 34662.3 35604.1 35583.7 35543.3 35484.5 35409.1 35319.7 35219.6
          35112.6 35003 34895.4 34794.6 34704.9 34630.4 35594.1 35573.2 35532.1 35472 35394.9 35303.5
          35201 35091.2 34978.6 34867.8 34763.7 34671 34593.9 35584.2 35562.9 35521 35459.7 35381
          35287.6 35182.6 35070.1 34954.4 34840.4 34733.1 34637.3 34557.5 35575.8 35554.2 35511.6 35449.3
          35369.2 35274.1 35167.1 35052.2 34933.9 34817.1 34707 34608.5 34526.3 35570.4 35548.5 35505.5
          35442.5 35361.6 35265.3 35156.9 35040.5 34920.4 34801.7 34689.6 34589.2 34505.3 35569.2 35547.3
          35504.1 35441 35359.8 35263.2 35154.4 35037.4 34916.8 34797.4 34684.5 34583.3 34498.6 35573.3
          35551.5 35508.6 35445.9 35365.2 35269.3 35161.2 35045 34925.2 34806.6 34694.4 34593.8 34509.4
          35583.4 35562 35519.8 35458.1 35378.9 35284.6 35178.5 35064.5 34946.9 34830.7 34720.7 34622.1
          34539.4 35600 35579.1 35538.1 35478.1 35401 35309.5 35206.6 35096.1 34982.3 34869.9 34763.8
          34668.6 34588.7 35623 35603 35563.5 35505.7 35431.7 35343.8 35245.1 35139.4 35030.7 34923.6
          34822.5 34732 34656.1 35652.2 35633.1 35595.5 35540.5 35470.2 35386.7 35293.3 35193.3 35090.8
          34990 34895.1 34810.3 34739.2 35686.9 35668.9 35633.4 35581.6 35515.4 35437.1 35349.6 35256.1
          35160.6 35066.8 34978.8 34900.4 34834.8 35726 35709.2 35676 35627.8 35566.1 35493.3 35412.1
          35325.7 35237.6 35151.4 35070.8 34999.1 34939.2 35768.4 35752.8 35722.1 35677.5 35620.6 35553.5
          35478.9 35399.7 35319.2 35240.7 35167.5 35102.7 35048.7 35812.6 35798.3 35770.1 35729.1 35676.9
          35615.6 35547.5 35475.5 35402.5 35331.6 35265.7 35207.6 35159.5 35857.2 35844 35818.2 35780.8
          35733.3 35677.5 35615.8 35550.6 35484.8 35421.2 35362.2 35310.5 35267.8 35900.4 35888.5 35865
          35830.9 35787.7 35737.2 35681.3 35622.6 35563.5 35506.5 35453.9 35408 35370.3 35940.9 35930
          35908.6 35877.6 35838.4 35792.5 35742 35689 35635.9 35584.8 35538 35497.2 35464 35977.2
          35967.2 35947.6 35919.3 35883.5 35841.7 35795.8 35747.9 35699.9 35654 35612 35575.7 35546.2
          36007.9 35998.7 35980.6 35954.5 35921.5 35883.2 35841.1 35797.2 35753.5 35711.8 35673.8 35641
          35614.7 36031.9 36023.3 36006.4 35982 35951.3 35915.5 35876.4 35835.6 35795.1 35756.6 35721.6
          35691.6 35667.6 36048.5 36040.2 36024.1 36000.9 35971.6 35937.7 35900.5 35861.9 35823.6 35787.2
          35754.3 35726.1 35703.7 36056.9 36048.9 36033.2 36010.5 35982 35948.9 35912.8 35875.2 35838
          35802.7 35770.8 35743.6 35722 35524.7 35503.2 35460.9 35399.1 35319.9 35226.2 35121.3 35009.3
          34894.8 34782.5 34677.6 34584.6 34507.7 35520.8 35499.1 35456.4 35394.1 35314.2 35219.6 35113.6
          35000.4 34884.6 34770.9 34664.6 34570.3 34492.2 35513.3 35491.3 35447.9 35384.6 35303.4 35207.1
          35099.2 34983.7 34865.3 34749 34639.9 34543.1 34463 35503.1 35480.7 35436.5 35371.8 35288.8
          35190.3 35079.6 34961 34839.1 34719.2 34606.5 34506.3 34423.1 35491.6 35468.6 35423.4 35357.2
          35272.2 35171.1 35057.3 34935.1 34809.3 34685.2 34568.2 34464 34377.3 35480 35456.6 35410.4
          35342.7 35255.6 35151.9 35035.1 34909.3 34779.5 34651.1 34529.9 34421.5 34331.2 35470.1 35446.2
          35399.1 35330.2 35241.4 35135.4 35015.9 34887.1 34753.8 34621.7 34496.6 34384.5 34290.9 35463.3
          35439.1 35391.5 35321.6 35231.6 35124.2 35002.8 34871.8 34736.1 34601.3 34473.5 34358.7 34262.6
          35461.1 35436.8 35389 35318.8 35228.4 35120.4 34998.3 34866.5 34729.8 34593.9 34464.9 34348.8
          34251.6 35464.6 35440.5 35392.9 35323.1 35233.1 35125.8 35004.4 34873.3 34737.4 34602.3 34474
          34358.5 34261.5 35474.7 35450.9 35404.1 35335.4 35247 35141.4 35022.3 34893.6 34760.4 34628
          34502.4 34389.3 34294.3 35491.8 35468.7 35423.1 35356.3 35270.3 35167.8 35052.3 34927.8 34799
          34671.2 34550.2 34441.3 34349.9 35516 35493.7 35449.8 35385.6 35303 35204.7 35094.1 34975.1
          34852.3 34730.9 34616 34512.9 34426.5 35546.9 35525.7 35483.9 35422.8 35344.3 35251.2 35146.5
          35034.3 34918.8 34804.9 34697.5 34601.3 34520.9 35583.8 35563.8 35524.4 35466.9 35393.2 35305.8
          35208 35103.3 34996 34890.5 34791.4 34703 34629.1 35625.6 35606.9 35570.1 35516.6 35448
          35367 35276.4 35179.9 35081.2 34984.6 34894.2 34813.9 34747 35671 35653.7 35619.7 35570.2
          35507 35432.5 35349.5 35261.2 35171.4 35083.8 35002.2 34929.9 34870 35718.4 35702.6 35671.4
          35626 35568.2 35500.2 35424.6 35344.6 35263.5 35184.7 35111.5 35047.1 34994 35766.3 35751.8
          35723.3 35682 35629.4 35567.7 35499.3 35427.2 35354.3 35283.8 35218.7 35161.7 35114.9 35812.9
          35799.7 35773.8 35736.3 35688.6 35632.7 35571.1 35506.2 35441 35378.2 35320.4 35270 35229
          35856.6 35844.6 35821 35786.9 35743.6 35693.1 35637.5 35579.2 35520.8 35464.7 35413.5 35369
          35333 35895.7 35884.7 35863.2 35832.1 35792.7 35746.9 35696.5 35643.8 35591.3 35541 35495.3
          35455.8 35424.1 35928.9 35918.7 35898.9 35870.3 35834.2 35792.1 35746.1 35698.1 35650.3 35604.8
          35563.5 35528.1 35499.9 35954.9 35945.4 35926.9 35900.2 35866.5 35827.4 35784.7 35740.2 35696.1
          35654.2 35616.3 35584 35558.4 35972.7 35963.7 35946.1 35920.7 35888.7 35851.6 35811.1 35769.1
          35727.4 35687.9 35652.3 35622.1 35598.2 35981.8 35973.1 35955.9 35931.2 35900 35863.9 35824.5
          35783.7 35743.2 35705 35670.6 35641.4 35618.4 35391.9 35367.6 35319.8 35250 35160.4 35054
          34934.7 34806.9 34675.9 34547.2 34426.7 34320 34231.9 35387.1 35362.7 35314.4 35243.9 35153.4
          35045.8 34925.1 34795.7 34662.8 34532.2 34409.8 34301.2 34211.6 35378.2 35353.3 35304.2 35232.4
          35140.2 35030.4 34906.9 34774.4 34638.1 34503.8 34377.6 34265.5 34172.8 35366.1 35340.6 35290.4
          35216.9 35122.2 35009.4 34882.3 34745.6 34604.5 34465.1 34333.8 34216.7 34119.8 35352.2 35326.1
          35274.5 35199 35101.6 34985.4 34854.1 34712.5 34565.9 34420.5 34283.1 34160.3 34058.3 35338.2
          35311.4 35258.5 35181 35080.9 34961.2 34825.7 34679.1 34526.9 34375.5 34231.8 34102.9 33995.6
          35325.8 35298.5 35244.5 35165.2 35062.7 34940 34800.8 34649.8 34492.7 34335.8 34186.5 34052.1
          33939.8 35316.9 35289.1 35234.3 35153.8 35049.7 34924.8 34782.9 34628.8 34468.1 34307.3 34153.7
          34015.2 33899 35313 35285.1 35230 35148.9 35044.1 34918.2 34775.2 34619.7 34457.4 34294.8
          34139.2 33998.6 33880.4 35315.6 35287.8 35232.9 35152.2 35047.7 34922.4 34780.1 34625.3 34463.7
          34301.8 34146.9 34006.8 33888.9 35325.6 35298.2 35244.1 35164.6 35061.8 34938.6 34798.8 34646.9
          34488.6 34330.1 34178.7 34041.8 33926.5 35343.5 35316.8 35264.1 35186.7 35086.8 34967.3 34831.8
          34685 34532.2 34379.7 34234.3 34103.1 33992.7 35369.3 35343.6 35292.9 35218.5 35122.6 35008.1
          34878.5 34738.6 34593.4 34448.9 34311.7 34188.2 34084.5 35402.8 35378.3 35330 35259.3 35168.3
          35059.9 34937.6 34805.9 34669.9 34535.1 34407.5 34293.1 34197.4 35443 35419.9 35374.5 35308
          35222.6 35121.1 35007.1 34884.7 34758.8 34634.7 34517.7 34413.3 34326.3 35488.8 35467.3 35424.9
          35363.1 35283.8 35189.8 35084.6 34972.1 34856.9 34743.8 34637.9 34543.8 34465.7 35538.8 35518.9
          35479.7 35422.7 35349.8 35263.5 35167.3 35064.9 34960.5 34858.6 34763.5 34679.6 34610.3 35591.2
          35572.9 35537 35484.8 35418.3 35339.8 35252.5 35160 35066.1 34974.9 34890.4 34816.2 34755.3
          35644.1 35627.5 35594.8 35547.4 35486.9 35415.9 35337.2 35254.2 35170.2 35089.1 35014.4 34949.1
          34895.9 35695.8 35680.7 35651 35608 35553.4 35489.3 35418.6 35344.3 35269.5 35197.6 35131.6
          35074.5 35028.2 35744.3 35730.5 35703.6 35664.7 35615.3 35557.5 35494 35427.4 35360.8 35297
          35238.8 35188.7 35148.4 35787.8 35775.2 35750.7 35715.3 35670.5 35618.2 35560.9 35501 35441.3
          35384.4 35332.8 35288.6 35253.5 35824.7 35813.2 35790.7 35758.2 35717.1 35669.4 35617.1 35562.7
          35508.7 35457.4 35411.1 35371.7 35340.6 35853.6 35842.9 35821.9 35791.7 35753.6 35709.3 35660.9
          35610.7 35561 35514 35471.7 35435.9 35407.9 35873.5 35863.3 35843.4 35814.7 35778.6 35736.6
          35690.9 35643.6 35596.7 35552.6 35513 35479.6 35453.5 35883.7 35873.8 35854.4 35826.4 35791.3
          35750.5 35706.2 35660.2 35614.8 35572.1 35533.9 35501.7 35476.6 35224.5 35196.5 35141.3 35060.4
          34956.5 34832.7 34693.4 34543.8 34389.8 34238.2 34095.9 33969.8 33866.1 35218.7 35190.4 35134.6
          35052.9 34947.7 34822.3 34681.1 34529.1 34372.6 34218.2 34073 33944.3 33838.2 35207.8 35179
          35122 35038.6 34931 34802.6 34657.6 34501.3 34339.8 34180.1 34029.5 33895.5 33785 35193
          35163.4 35104.9 35019.1 34908.3 34775.8 34625.7 34463.4 34295.1 34127.9 33969.7 33828.4 33711.5
          35175.8 35145.3 35085.1 34996.6 34882.1 34744.8 34588.9 34419.6 34243.3 34067.4 33900.2 33750.1
          33625.5 35158.2 35126.9 35064.9 34973.7 34855.4 34713.3 34551.4 34375 34190.6 34005.6 33828.9
          33669.4 33536.5 35142.5 35110.4 35046.8 34953.1 34831.6 34685.2 34518 34335.3 34143.5 33950.3
          33764.8 33596.7 33455.9 35130.6 35097.9 35033.2 34937.7 34813.8 34664.2 34493.2 34305.8 34108.5
          33909.2 33717.1 33542.3 33395.2 35124.4 35091.5 35026.2 34929.9 34804.8 34653.7 34480.8 34291.1
          34091.2 33888.8 33693.3 33515 33364.5 35125.7 35092.8 35027.6 34931.6 34806.7 34656.1 34483.7
          34294.6 34095.4 33893.7 33698.9 33521 33370.6 35135.4 35102.9 35038.7 34944 34821.1 34672.9
          34503.5 34318.1 34123 33926 33735.9 33562.6 33416.1 35154.2 35122.5 35059.9 34967.8 34848.3
          34704.6 34540.6 34361.7 34174 33985 33803.4 33638.3 33499 35182.2 35151.7 35091.5 35002.9
          34888.2 34750.6 34594.2 34424.1 34246.4 34068.4 33898 33743.9 33614.3 35219 35190 35132.6
          35048.5 34939.8 34809.8 34662.5 34503 34337.2 34172.1 34015 33873.7 33755.4 35263.7 35236.3
          35182.4 35103.3 35001.5 34880.1 34743.1 34595.4 34442.8 34291.7 34148.9 34021.2 33914.9 35314.9
          35289.4 35239.2 35165.7 35071.3 34959.1 34833.1 34697.9 34559 34422.3 34294.1 34180.1 34085.9
          35371 35347.5 35301.1 35233.5 35146.8 35044.2 34929.3 34806.8 34681.6 34559.2 34445.1 34344.5
          34261.9 35430 35408.5 35366.1 35304.3 35225.4 35132.2 35028.4 34918.2 34806.3 34697.5 34596.8
          34508.7 34436.9 35489.9 35470.3 35431.8 35375.7 35304.3 35220.3 35127.1 35028.5 34929 34832.9
          34744.6 34667.9 34605.9 35548.5 35530.7 35495.8 35445.2 35380.8 35305.3 35221.8 35134.1 35045.9
          34961.3 34884 34817.3 34764 35603.5 35587.4 35555.8 35510.1 35452.1 35384.3 35309.6 35231.5
          35153.3 35078.7 35011 34953 34907.1 35653 35638.3 35609.7 35568.2 35515.8 35454.7 35387.6
          35317.6 35248 35181.9 35122.2 35071.5 35031.7 35695 35681.6 35655.3 35617.5 35569.6 35514
          35453.1 35389.9 35327.2 35267.9 35214.8 35169.9 35134.9 35728 35715.5 35691.1 35656 35611.7
          35560.3 35504.2 35446 35388.6 35334.5 35286.2 35245.7 35214.4 35750.7 35738.8 35715.8 35682.5
          35640.6 35592 35539.1 35484.4 35430.5 35379.9 35334.8 35297.2 35268.3 35762.2 35750.7 35728.3
          35696 35655.2 35608.1 35556.9 35503.9 35451.8 35402.9 35359.4 35323.2 35295.5 35022.7 34989.9
          34925.2 34830.2 34707.8 34561.4 34396.2 34217.9 34033.7 33851.6 33680.4 33528.5 33403.9 35015.6
          34982.4 34916.9 34820.7 34696.5 34548 34379.9 34198.4 34010.5 33824.3 33648.9 33493 33364.9
          35002.1 34968.2 34901.1 34802.6 34675.2 34522.4 34349.2 34161.4 33966.3 33772.4 33588.7 33425
          33290.1 34983.7 34948.7 34879.6 34777.9 34646 34487.5 34307.1 34110.7 33905.7 33700.7 33505.6
          33330.7 33186.1 34962.2 34926.1 34854.6 34749.1 34612.2 34447 34258.3 34051.8 33835.1 33617
          33408 33219.5 33062.6 34940.1 34902.8 34828.8 34719.7 34577.5 34405.5 34208.2 33991.4 33762.4
          33530.6 33306.8 33103.4 32933.1 34919.8 34881.5 34805.3 34692.8 34546 34367.9 34162.9 33936.7
          33696.7 33452.2 33214.6 32997 32813.6 34904 34864.8 34787 34672 34521.6 34339 34128.3
          33895 33646.6 33392.4 33144 32915.3 32721.2 34894.8 34855.1 34776.5 34660.1 34507.9 34322.9
          34109.2 33872.3 33619.5 33360.3 33106.3 32871.5 32671.4 34894.1 34854.4 34775.8 34659.5 34507.4
          34322.6 34109.2 33872.8 33620.7 33362.1 33108.7 32874.3 32674.2 34903.3 34864.1 34786.5 34671.7
          34521.8 34340 34130.4 33898.7 33652.1 33400 33153.6 32926.2 32732.3 34923.1 34884.9 34809.2
          34697.5 34551.8 34375.5 34172.8 33949.6 33713.2 33472.6 33238.7 33023.9 32841.4 34953.7 34916.9
          34844.1 34736.6 34596.9 34428.3 34235.4 34023.9 33801.1 33575.8 33358.4 33160.1 32992.6 34994.6
          34959.6 34890.3 34788.3 34656 34496.9 34315.7 34118.2 33911.5 33704 33505.4 33325.8 33175.1
          35044.9 35011.9 34946.7 34850.9 34727.2 34578.9 34410.8 34228.7 34039.5 33851.1 33672.4 33512.1
          33378.8 35102.9 35072.1 35011.5 34922.6 34808 34671.4 34517.2 34351.2 34180 34010.9 33851.9
          33710.7 33594.3 35166.8 35138.4 35082.5 35000.8 34895.8 34771.1 34631.1 34481.3 34327.9 34177.6
          34037.5 33914.3 33813.7 35234.3 35208.4 35157.3 35082.8 34987.4 34874.6 34748.5 34614.4 34478.1
          34345.5 34223.1 34116.3 34030.1 35303 35279.5 35233.1 35165.7 35079.6 34978.2 34865.4 34746.2
          34625.7 34509.5 34403 34311 34237.5 35370.4 35349.1 35307.2 35246.5 35169.1 35078.3 34977.9
          34872.2 34766.2 34664.5 34572.1 34493.1 34430.6 35433.8 35414.6 35376.9 35322.2 35252.8 35171.6
          35082.2 34988.5 34895.1 34806.2 34725.9 34657.8 34604.6 35490.9 35473.5 35439.4 35390 35327.5
          35254.6 35174.7 35091.4 35008.7 34930.4 34860.2 34801.2 34755.6 35539.5 35523.6 35492.5 35447.5
          35390.7 35324.7 35252.5 35177.6 35103.6 35033.9 34971.8 34919.9 34880.2 35577.7 35562.9 35534.1
          35492.6 35440.2 35379.4 35313.2 35244.7 35177.2 35113.9 35057.8 35011.3 34976 35604 35590
          35562.8 35523.5 35474.1 35416.9 35354.7 35290.4 35227.3 35168.4 35116.3 35073.3 35040.9 35617.4
          35603.8 35577.4 35539.3 35491.4 35436 35375.7 35313.7 35252.8 35196 35145.9 35104.6 35073.6
          34786.9 34748.3 34671.8 34559.4 34413.9 34239.4 34041.4 33826.9 33604.2 33383.2 33174.6 32989.4
          32837.8 34778.1 34738.9 34661.4 34547.3 34399.4 34221.9 34020.1 33800.9 33572.8 33345.7 33130.9
          32939.6 32782.8 34761.4 34721.2 34641.6 34524.3 34372 34188.6 33979.4 33751.3 33512.8 33274.1
          33047 32843.8 32676.6 34738.4 34696.9 34614.4 34492.8 34334.4 34143 33923.6 33683.1 33430
          33174.9 32930.3 32709.8 32527.2 34711.6 34668.4 34582.8 34456 34290.6 34089.8 33858.5 33603.3
          33332.8 33057.9 32791.7 32549.6 32347.5 34683.7 34638.9 34549.9 34418 34245.3 34034.9 33791.3
          33520.9 33232 32935.8 32646.3 32380 32155.5 34657.7 34611.5 34519.5 34382.9 34203.7 33984.6
          33729.9 33445.5 33139.7 32823.7 32511.7 32221.8 31974.7 34636.7 34589.4 34495.1 34354.9 34170.6
          33944.9 33681.7 33386.8 33068.1 32736.5 32406.8 32097.6 31831.5 34623.5 34575.5 34479.8 34337.6
          34150.6 33921.2 33653.4 33352.8 33027.2 32687.4 32348.1 32028.1 31750.9 34620.2 34572.1 34476.3
          34333.9 34146.7 33917.2 33649.5 33349.1 33023.9 32684.8 32346.1 32026.6 31749.3 34628.6 34581
          34486.3 34345.6 34160.9 33935 33672 33377.9 33060.6 32730.9 32403.2 32095.4 31829 34649.4
          34602.9 34510.5 34373.5 34193.9 33975 33721.1 33438.5 33135.5 32822.8 32514.4 32227 31980
          34683 34638.2 34549.2 34417.4 34245.3 34036.2 33794.9 33528.1 33244 32953.6 32670 32408.4
          32185.7 34728.8 34686.1 34601.4 34476.3 34313.4 34116.4 33890.4 33642.2 33380.2 33115.1 32859
          32625.7 32429.2 34785.7 34745.4 34665.8 34548.4 34396.2 34212.9 34003.8 33775.9 33537.6 33298.8
          33071 32866 32695.5 34851.9 34814.4 34740.3 34631.5 34490.7 34322 34130.9 33924.1 33709.7
          33497.2 33296.8 33118.8 32972.6 34925.2 34890.7 34822.5 34722.5 34593.7 34440.1 34267.2 34081.3
          33890.4 33703.1 33528.4 33375.2 33251 35003.1 34971.5 34909.3 34818.4 34701.6 34563 34407.9
          34242.3 34073.7 33909.8 33758.6 33627.6 33522.9 35082.7 35054 34997.7 34915.6 34810.5 34686.4
          34548.2 34401.7 34253.7 34111.1 33980.9 33869.4 33781.4 35160.9 35135.1 35084.3 35010.5 34916.5
          34805.8 34683.3 34554.3 34424.8 34301.2 34189.3 34094.4 34020.6 35234.7 35211.5 35165.9 35099.7
          35015.6 34917.2 34808.7 34695.1 34581.8 34474.5 34378.1 34297.3 34235.2 35301.3 35280.4 35239.3
          35179.8 35104.4 35016.5 34920 34819.6 34720 34626.2 34542.8 34473.3 34420.7 35358.1 35339
          35301.6 35247.7 35179.5 35100.3 35013.6 34923.9 34835.4 34752.5 34679.2 34618.7 34573.4 35402.7
          35385.1 35350.6 35300.9 35238.3 35165.7 35086.6 35004.9 34924.7 34849.9 34784.2 34730.3 34690.3
          35433.4 35416.8 35384.4 35337.6 35278.7 35210.5 35136.5 35060.3 34985.6 34916.2 34855.4 34805.9
          34769.4 35449.1 35433 35401.5 35356.2 35299.2 35233.4 35161.9 35088.3 35016.4 34949.8 34891.5
          34844.1 34809.3 34518 34472.2 34381.7 34248.2 34074.9 33866.2 33628.2 33368.9 33098.3 32828.5
          32572.8 32345.4 32159.6 34507.1 34460.6 34368.6 34232.9 34056.4 33843.4 33600 33334.1 33055.7
          32777.1 32512 32275.5 32081.8 34486.4 34438.6 34343.8 34203.8 34021.2 33800.1 33546.4 33267.7
          32974.1 32678.2 32394.8 32140.1 31930.5 34457.8 34408.2 34309.7 34163.7 33972.8 33740.6 33472.4
          33175.8 32860.8 32540.3 32230.1 31948.5 31714.6 34424.3 34372.6 34269.7 34116.9 33916.1 33670.8
          33385.7 33067.8 32726.9 32376 32032.2 31716 31450.1 34389.2 34335.3 34227.9 34068 33857.2
          33598.4 33295.6 32955.3 32586.7 32202.9 31821.5 31465.2 31161.1 34356.2 34300.3 34188.8 34022.4
          33802.5 33531.3 33212.4 32851.4 32457 32041.7 31623.4 31226.5 30881.9 34328.9 34271.4 34156.7
          33985.3 33758.3 33477.5 33146.2 32769.3 32354.8 31914.7 31466.5 31035.4 30655 34310.6 34252.1
          34135.4 33961 33729.9 33443.7 33105.4 32719.9 32294.5 31841 31376.3 30925.6 30523.9 34303.9
          34245.2 34128.1 33953.1 33721.3 33434.5 33095.8 32710.2 32285.2 31832.4 31368.7 30918.9 30517.4
          34310.9 34252.8 34136.8 33963.7 33734.8 33452.3 33119.8 32742.7 32329.1 31890.9 31445.3 31016.2
          30635.8 34332.7 34275.8 34162.5 33993.7 33771.1 33497.5 33177 32815.7 32422.6 32010.2 31595.5
          31201.2 30856 34369.4 34314.5 34205.3 34043 33829.6 33568.5 33264.5 32924.6 32558.4 32178.8
          31802.6 31450.5 31146.8 34420.8 34368.4 34264.4 34110.2 33908.4 33662.6 33378.5 33063.6 32728
          32384.7 32049.7 31741.5 31480.2 34485.3 34435.9 34338.1 34193.4 34004.8 33776.4 33514.2 33226.2
          32922.7 32616.5 32322.3 32056.5 31835 34561.1 34515.1 34424.1 34289.9 34115.7 33905.9 33666.7
          33406.3 33135 32864.8 32609.2 32382.2 32196.5 34645.6 34603.2 34519.5 34396.3 34237.1 34046.4
          33830.6 33597.7 33357.5 33121.2 32901 32708.6 32554.1 34735.8 34697.2 34620.8 34508.9 34364.9
          34193.2 34000.3 33793.8 33583 33378.1 33189.6 33027.3 32899.4 34828.4 34793.4 34724.4 34623.6
          34494.3 34341.1 34170 33988.3 33804.5 33627.7 33467.1 33330.8 33225.2 34919.6 34888.1 34826.2
          34735.9 34620.6 34484.6 34333.7 34174.6 34015.1 33863.1 33726.4 33612 33524.7 35006 34977.8
          34922.3 34841.6 34739 34618.6 34485.7 34346.6 34208.1 34077.3 33960.9 33864.4 33792 35084.1
          35058.7 35008.9 34936.7 34845.1 34738.2 34620.9 34498.7 34377.9 34264.7 34164.7 34082.7 34022.1
          35150.7 35127.7 35082.6 35017.5 34935.1 34839.2 34734.5 34626.1 34519.5 34420.2 34333.2 34262.4
          34210.8 35203.1 35181.9 35140.6 35080.8 35005.5 34918.1 34823.1 34725 34629.1 34540.1 34462.6
          34400 34354.9 35239.3 35219.4 35180.5 35124.4 35053.9 34972.2 34883.6 34792.5 34703.7 34621.6
          34550.3 34493.1 34452.1 35257.7 35238.5 35200.8 35146.6 35078.5 34999.7 34914.4 34826.8 34741.4
          34662.7 34594.6 34540 34501.1 34216.9 34163 34055.9 33897.8 33691.6 33442.1 33156.1 32842.7
          32513.7 32183.8 31869.8 31589.9 31361.7 34203.6 34148.7 34039.7 33878.5 33668 33412.7 33119.2
          32796.4 32456.1 32113.3 31785.6 31492.1 31252 34178.1 34121.4 34008.8 33841.8 33623.1 33356.6
          33048.6 32707.7 32345.4 31977.3 31622 31300.9 31036.3 34142.9 34083.8 33966.2 33791.2 33561.1
          33279.3 32951 32584.4 32190.7 31785.7 31389.5 31026.5 30723.7 34101.4 34039.5 33916 33731.8
          33488.3 33188.3 32836 32438.4 32006.3 31555 31106.1 30687.2 30331.6 34057.7 33992.8 33863.3
          33669.5 33412.2 33093.2 32715.7 32285.3 31811.4 31308.7 30799 30312.9 29890.4 34016.1 33948.6
          33813.5 33610.9 33340.9 33004.5 32603.8 32142.8 31629.4 31076.6 30505.3 29947.6 29449.5 33981
          33911.3 33771.8 33562.2 33282.3 32932.4 32513.6 32029 31484.5 30891.5 30269 29648.4 29079.1
          33956.3 33885.3 33743 33529.1 33243.2 32885.3 32456.4 31958.6 31397.4 30782.5 30131.4 29474
          28860.5 33945.3 33873.8 33730.6 33515.5 33228.3 32869.1 32439.1 31941 31380.1 30766.6 30117.6
          29462.8 28851.5 33950.3 33879.3 33737.3 33524.2 33240.3 32886.4 32464.5 31978.2 31434.3 30844.2
          30226.4 29610.7 29044 33972.7 33903.1 33764.2 33556.2 33280 32937.2 32531 32066.6 31552.7
          31002.4 30435.8 29882.3 29383.7 34012.8 33945.6 33811.4 33611.2 33346.2 33019.3 32634.7 32199.4
          31723.7 31222.6 30716.9 30234.3 29810.2 34070.2 34006 33878.1 33687.7 33437 33129.4 32770.5
          32368.5 31935.2 31486.7 31043.4 30630.8 30277.6 34143.3 34082.7 33962.3 33783.5 33549.1 33263.3
          32932.6 32566.2 32176.6 31780.1 31396.5 31048 30757.5 34230.1 34173.6 34061.5 33895.6 33679
          33416.7 33115.5 32785.3 32438.8 32091.9 31762.9 31470.9 31233.8 34327.5 34275.4 34172.2 34020
          33822.3 33584.1 33313 33018.6 32713.6 32412.8 32132.7 31889.5 31696.9 34432.1 34384.6 34290.6
          34152.5 33973.8 33759.9 33518.3 33258.6 32992.5 32733.9 32496.9 32295.1 32139 34539.9 34496.9
          34412.2 34287.9 34128 33937.8 33724.5 33497.2 33267 33045.9 32846.3 32679.1 32552.7 34646.6
          34608 34532.1 34421.2 34279.1 34111 33923.9 33726.3 33528 33339.8 33171.9 33033.4 32930.7
          34747.8 34713.3 34645.6 34546.9 34421.1 34273.1 34109.4 33937.9 33767.4 33607 33465.5 33350.2
          33266.2 34839.5 34808.6 34748.1 34660.2 34548.6 34418 34274.4 34125.1 33977.6 33840.1 33719.9
          33623.1 33553.6 34917.8 34890 34835.5 34756.6 34656.7 34540.4 34413.3 34281.7 34152.8 34033.3
          33929.6 33846.9 33788.3 34979.5 34954.1 34904.2 34832.3 34741.4 34636 34521.3 34403.2 34288
          34181.8 34090.3 34017.7 33966.9 35022.1 34998.3 34951.6 34884.3 34799.6 34701.6 34595.2 34486.1
          34380 34282.6 34198.9 34132.9 34087.1 35043.9 35020.8 34975.8 34910.9 34829.2 34734.9 34632.7
          34528 34426.5 34333.4 34253.7 34190.9 34147.6 33885.5 33822.2 33696.3 33509.6 33265.4 32968.5
          32626 32248.4 31849.3 31446.7 31061.8 30717.8 30437.9 33869.2 33804.7 33676.2 33485.6 33235.6
          32930.8 32578 32187.2 31772.1 31351 30945.8 30581.8 30284.2 33838.2 33771.3 33638.1 33439.8
          33178.8 32858.8 32485.9 32069.5 31622.9 31164.7 30718.7 30313.2 29978.6 33795.2 33725.1 33585.3
          33376.5 33100.2 32759 32358 31905 31412.7 30899.6 30391.5 29921.1 29526.5 33744.3 33670.5
          33523 33301.8 33007.4 32641.2 32206.4 31708.9 31159.6 30576.1 29985.5 29425 28942.7 33690.3
          33612.7 33457.2 33223.1 32910 32517.5 32046.8 31501.5 30889.3 30225.6 29536.2 28861.7 28260.4
          33638.6 33557.4 33394.5 33148.5 32818 32401.4 31897.5 31307.1 30634.5 29890.7 29097.6 28294.4
          27546.7 33594.2 33510.2 33341.2 33085.7 32741.5 32305.9 31776.2 31150.7 30430.4 29621.2 28738.9
          27816.1 26918.5 33561.9 33475.9 33303 33041.5 32688.8 32241.9 31697.5 31052.8 30306.8 29462.4
          28529.9 27535.1 26537.9 33545.4 33458.6 33284.3 33020.7 32665.7 32216.4 31670.2 31024.8 30279.9
          29438.8 28511.9 27524.9 26538 33547.6 33461.3 33288 33026.5 32675.1 32232.2 31696.5 31067.9
          30348.9 29546.4 28675.5 27766.8 26882.2 33570.1 33485.4 33315.5 33059.8 32717.6 32288.5 31773.4
          31175.2 30500.2 29760.2 28976 28182.4 27437.9 33613.5 33531.4 33367.1 33120.5 32791.9 32382.5
          31895.4 31336.3 30715.5 30049.3 29362.6 28691.2 28085.9 33677.3 33598.8 33441.8 33206.9 32895.5
          32510.1 32055.7 31540.6 30978.2 30387.8 29796.3 29237.9 28754 33760 33685.7 33537.6 33316.6
          33025.1 32666.7 32248 31779.3 31275.7 30758.2 30253.6 29793.2 29409.4 33859 33789.6 33651.5
          33446.2 33176.6 32847.4 32466.3 32044.7 31598.5 31149 30721.7 30343.9 30040.6 33971.1 33907.1
          33779.9 33591.4 33345.2 33046.5 32703.8 32328.9 31938 31551.3 31191.9 30882.9 30643.5 34092.2
          34033.8 33918 33747.1 33524.8 33257.1 32952.6 32623.2 32284.4 31954.7 31654.3 31402.4 31213.1
          34217.6 34164.9 34060.6 33907.2 33708.7 33471.4 33203.8 32917.4 32626.4 32347.5 32097.7 31892.4
          31742.4 34342.2 34295 34201.8 34065.3 33889.7 33681.1 33447.8 33200.6 32952.4 32717.5 32510.2
          32342.6 32223 34460.8 34418.7 34335.9 34215.1 34060.4 33877.8 33675.3 33462.7 33251.3 33053.5
          32880.9 32743.4 32647.1 34568.4 34530.9 34457.3 34350.3 34213.9 34053.9 33877.8 33694.3 33513.6
          33345.9 33201.1 33086.9 33008.2 34660.4 34626.8 34560.9 34465.4 34344.1 34202.8 34048 33888
          33731.5 33587.4 33463.8 33367.2 33301.6 34733.1 34702.4 34642.5 34555.8 34446.2 34319 34180.4
          34038 33899.4 33772.5 33664.4 33580.4 33523.9 34783.2 34754.6 34698.7 34618 34516.3 34398.6
          34270.9 34140.1 34013.3 33897.7 33799.6 33723.7 33673.1 34808.8 34781.3 34727.4 34649.8 34552
          34439.1 34316.8 34191.8 34070.9 33960.9 33867.6 33795.7 33747.9 33526 33452.1 33305.1 33086.5
          32799.2 32448 32040.5 31588 31106.6 30617.8 30148 29727.2 29385.4 33506.4 33430.9 33280.7
          33056.9 32762 32400.2 31978.7 31508 31004.1 30488.7 29989.9 29540 29172.7 33468.9 33390.5
          33234 33000.2 32690.8 32308.7 31859.8 31353.4 30804.7 30235.8 29677.1 29165.9 28743.8 33416.9
          33334.4 33169.4 32921.8 32592 32181.5 31693.7 31135.8 30521.2 29871.4 29219.3 28609.1 28094.1