<?xml version="1.0"?>
<VTKFile type="UnstructuredGrid" version="0.1" byte_order="LittleEndian">
  <UnstructuredGrid>
    <Piece NumberOfCells="1014" NumberOfPoints="1372">
      <CellData Scalars="p (Pa)">
        <DataArray type="Float32" Name="p (Pa)" NumberOfComponents="1" format="ascii">
          -666313 -679387 -704943 -740625 -781422 -823964 -667944 -683103 -713461 -756362 -801959 -849659
          -669429 -688476 -729064 -790191 -843028 -901699 -667274 -689981 -742881 -836786 -891093 -968869
          -658042 -679109 -725477 -801003 -884918 -1.00299e+06 -643505 -661951 -701714 -767463 -863318 -1.01045e+06
          -625973 -642217 -677614 -739068 -840994 -1.00955e+06 -607028 -621165 -652498 -709603 -815851 -1.04311e+06
          -587940 -599519 -624914 -669927 -746384 -860825 -570232 -579018 -597516 -627476 -669819 -714882
          -555556 -561988 -574927 -594117 -617619 -638677 -545179 -550036 -559461 -572592 -587386 -599991
          -539834 -543928 -551715 -562225 -573658 -583397 -689671 -704416 -733369 -773601 -817720 -863086
          -691644 -709352 -745689 -797895 -845688 -892844 -693513 -717276 -772467 -868323 -911804 -958199
          -690787 -721009 -808014 -1.0917e+06 -1.01639e+06 -1.05263e+06 -678305 -703405 -762954 -872391 -950343 -1.06604e+06
          -659773 -679404 -721987 -791488 -880753 -1.01205e+06 -638643 -654417 -687936 -742764 -823539 -941465
          -616970 -629799 -657010 -701998 -770325 -864612 -596170 -606301 -627482 -661443 -709364 -763567
          -577613 -585271 -600816 -624301 -654081 -682647 -562608 -568303 -579500 -595469 -614078 -630551
          -552137 -556534 -564964 -576498 -589292 -600415 -546777 -550543 -557663 -567204 -577573 -586638
          -707066 -722639 -753334 -796410 -844746 -894607 -708714 -727290 -765488 -821163 -876797 -928233
          -709766 -734272 -790664 -888593 -962145 -1.01176e+06 -705536 -735856 -819313 -1.05621e+06 -1.14872e+06 -1.16217e+06
          -691046 -716334 -775891 -886084 -1.00195e+06 -1.15735e+06 -670044 -689323 -730829 -797938 -884512 -996173
          -646491 -661233 -691872 -739691 -803821 -881160 -622934 -634314 -657608 -693368 -740718 -793429
          -601020 -609717 -627228 -653348 -686214 -719146 -582024 -588557 -601433 -619915 -641813 -662122
          -566974 -571895 -581392 -594545 -609427 -622773 -556595 -560473 -567836 -577781 -588742 -598548
          -551314 -554686 -561034 -569502 -578739 -587062 -717717 -733169 -763671 -807064 -858111 -912660
          -718451 -736222 -772229 -824533 -883239 -941367 -717758 -739651 -786827 -860869 -937869 -1.00285e+06
          -711593 -736815 -795684 -903175 -1.00905e+06 -1.08803e+06 -696431 -718945 -768995 -853577 -960977 -1.08322e+06
          -674685 -692526 -730340 -790532 -870046 -960609 -650114 -663654 -691434 -733808 -788311 -846758
          -625652 -635793 -656137 -686173 -723373 -761000 -603238 -610786 -625649 -646947 -672271 -696568
          -584147 -589766 -600640 -615794 -633174 -649297 -569238 -573500 -581628 -592704 -605092 -616460
          -559053 -562462 -568896 -577532 -587070 -595861 -553896 -556896 -562528 -570035 -578289 -585952
          -722388 -737304 -766934 -809922 -862567 -920244 -722167 -738834 -772623 -822761 -883798 -946275
          -719874 -739477 -780999 -846662 -928766 -999320 -712319 -734164 -782978 -868574 -989719 -1.06869e+06
          -697002 -717494 -763215 -844544 -971236 -1.07666e+06 -675315 -692051 -728076 -788248 -875872 -971083
          -650605 -663263 -689432 -730109 -783748 -838956 -625968 -635238 -653786 -681058 -714491 -747202
          -603535 -610279 -623454 -642091 -663892 -684605 -584613 -589573 -599098 -612220 -627135 -641131
          -569968 -573732 -580873 -590547 -601372 -611537 -560028 -563062 -568777 -576444 -584970 -593039
          -555014 -557703 -562751 -569497 -576989 -584129 -722392 -736636 -765187 -807438 -860678 -919328
          -721419 -737105 -769284 -818654 -882462 -946745 -717989 -736116 -775279 -841712 -939746 -1.01068e+06
          -709625 -729796 -776606 -871992 -1.09186e+06 -1.12675e+06 -694379 -713785 -759444 -855803 -1.09536e+06 -1.17479e+06
          -673122 -689126 -724933 -791223 -911904 -1.08799e+06 -648829 -660847 -686224 -727667 -787513 -854607
          -624552 -633210 -650677 -676832 -709854 -742741 -602481 -608675 -620790 -637994 -658278 -677717
          -583937 -588444 -597088 -608998 -622592 -635531 -569647 -573057 -579523 -588289 -598161 -607611
          -559981 -562738 -567933 -574923 -582766 -590345 -555114 -557567 -562178 -568364 -575303 -582058
          -719043 -732448 -759445 -799828 -851698 -910168 -717465 -731998 -761879 -808090 -869376 -937013
          -713141 -729535 -764699 -823517 -910002 -1.00458e+06 -704179 -722066 -762488 -838335 -975939 -1.14945e+06
          -689154 -706475 -746171 -822962 -970311 -1.16831e+06 -668721 -683339 -715914 -775855 -887749 -1.1187e+06
          -645369 -656507 -680100 -719032 -777333 -851810 -621922 -629981 -646296 -670937 -702713 -735871
          -600532 -606291 -617579 -633694 -652910 -671717 -582537 -586718 -594750 -605857 -618636 -630994
          -568669 -571832 -577839 -586012 -595288 -604306 -559294 -561856 -566692 -573227 -580619 -587876
          -554576 -556860 -561161 -566958 -573519 -580004 -713673 -726139 -751282 -789077 -838241 -894855
          -711619 -724906 -752145 -794226 -850827 -917126 -706607 -721183 -751997 -802414 -876376 -970754
          -697239 -712731 -746623 -806272 -907473 -1.08238e+06 -682548 -697497 -730447 -789020 -887606 -1.03718e+06
          -663120 -675983 -703818 -751621 -828163 -938344 -640995 -651056 -672054 -705593 -752784 -808166
          -618655 -626094 -641074 -663471 -691930 -721622 -598135 -603526 -614086 -629156 -647167 -665067
          -580782 -584727 -592314 -602836 -615023 -626980 -567366 -570363 -576064 -583850 -592751 -601511
          -558281 -560713 -565315 -571557 -578668 -585725 -553705 -555876 -559973 -565519 -571836 -578146
          -707550 -719125 -742467 -777617 -823672 -877514 -705167 -717322 -742134 -780297 -831763 -893710
          -699713 -712725 -739861 -783256 -845310 -925257 -690170 -703701 -732527 -780594 -854555 -961067
          -675919 -688941 -716814 -763586 -835767 -939538 -657501 -668899 -692981 -732358 -790273 -865892
          -636606 -645768 -664644 -694059 -733962 -780024 -615385 -622336 -636276 -656975 -683124 -710840
          -595738 -600870 -610929 -625308 -642592 -660088 -579010 -582807 -590126 -600320 -612218 -624048
          -566016 -568915 -574444 -582028 -590755 -599422 -557190 -559548 -564017 -570102 -577072 -584036
          -552738 -554843 -558822 -564227 -570413 -576629 -701722 -712575 -734461 -767475 -810992 -862485
          -699163 -710452 -733453 -768798 -816742 -875853 -693513 -705427 -730112 -769243 -825012 -898983
          -684019 -696280 -722093 -764264 -827399 -917338 -670273 -682119 -707200 -748576 -811456 -903423
          -652760 -663307 -685459 -721382 -774060 -845012 -632909 -641587 -659471 -687429 -725881 -772258
          -612626 -619347 -632881 -653168 -679300 -708046 -593702 -598732 -608645 -622960 -640461 -658602
          -577483 -581230 -588486 -598677 -610713 -622830 -564826 -567691 -573174 -580739 -589509 -598270
          -556204 -558532 -562954 -568999 -575954 -582926 -551849 -553923 -557854 -563207 -569354 -575546
          -696918 -707259 -728120 -759641 -801358 -851088 -694302 -705021 -726867 -760513 -806526 -864526
          -688642 -699913 -723268 -760410 -814104 -888744 -679345 -690960 -715441 -755670 -817114 -909586
          -666101 -677450 -701614 -742135 -806290 -908343 -649325 -659614 -681466 -717890 -774691 -861037
          -630258 -638877 -656892 -685962 -728513 -785580 -610645 -617402 -631192 -652437 -681137 -714936
          -592223 -597306 -607428 -622339 -641136 -661323 -576352 -580135 -587516 -598016 -610631 -623523
          -563922 -566804 -572345 -580046 -589050 -598090 -555436 -557767 -562207 -568300 -575339 -582402
          -551145 -553216 -557146 -562512 -568688 -574909 -693563 -703584 -723798 -754321 -794617 -842219
          -690954 -701343 -722518 -755136 -799653 -855053 -685370 -696317 -719036 -755274 -807798 -879954
          -676301 -687666 -711744 -751767 -814262 -911654 -663471 -674732 -698991 -740784 -810932 -936287
          -647224 -657609 -680072 -719150 -786050 -910125 -628672 -637488 -656309 -688140 -739446 -822025
          -609467 -616416 -630856 -653952 -687366 -731277 -591333 -596553 -607084 -622990 -643868 -667509
          -575654 -579519 -587121 -598095 -611558 -625601 -563348 -566272 -571920 -579831 -589168 -598596
          -554938 -557288 -561776 -567957 -575125 -582322 -550683 -552763 -556716 -562124 -568359 -574635
          -691872 -701738 -721629 -751614 -791014 -836995 -689281 -699516 -720368 -752423 -795852 -848710
          -683762 -694572 -717009 -752723 -803916 -871416 -674838 -686123 -710073 -749885 -811296 -901618
          -662243 -673528 -697963 -740330 -811057 -929699 -646279 -656802 -679812 -720702 -792993 -930046
          -627984 -636996 -656533 -690786 -750748 -868719 -608968 -616085 -631078 -655776 -693725 -749876
          -590957 -596290 -607150 -623870 -646576 -673723 -575356 -579286 -587060 -598402 -612550 -627606
          -563100 -566058 -571788 -579858 -589449 -599186 -554721 -557086 -561612 -567862 -575127 -582426
          -550480 -552569 -556543 -561985 -568265 -574584
        </DataArray>
        <DataArray type="Float32" Name="saturation" NumberOfComponents="1" format="ascii">
          0.734688 0.733875 0.732329 0.730257 0.728003 0.72577 0.734586 0.733647 0.731825 0.729374 0.726911 0.724476
          0.734493 0.733319 0.730918 0.727533 0.724806 0.721967 0.734627 0.733227 0.730129 0.72512 0.722467 0.718932
          0.73521 0.733892 0.731125 0.726961 0.72276 0.717469 0.736142 0.734962 0.732521 0.728761 0.723803 0.717156
          0.737294 0.736226 0.733984 0.730345 0.724908 0.717193 0.738572 0.737615 0.735563 0.732053 0.726187 0.715811
          0.739899 0.73909 0.737364 0.734462 0.729932 0.723925 0.741166 0.740533 0.739229 0.737194 0.734468 0.731742
          0.742245 0.741769 0.740827 0.739466 0.737853 0.736456 0.743023 0.742657 0.741955 0.740995 0.739938 0.739057
          0.743429 0.743118 0.742531 0.741751 0.740918 0.740221 0.733246 0.73236 0.730671 0.728426 0.726091 0.723814
          0.733127 0.732067 0.729971 0.727125 0.724673 0.722384 0.733014 0.731602 0.728488 0.723559 0.721496 0.7194
          0.733179 0.731384 0.726594 0.713885 0.716908 0.715427 0.733942 0.73242 0.729009 0.723362 0.719748 0.714891
          0.7351 0.733874 0.731327 0.727464 0.722959 0.717088 0.736458 0.73544 0.733352 0.730136 0.725792 0.720144
          0.737897 0.73704 0.735275 0.732504 0.728605 0.72374 0.739322 0.738622 0.737193 0.734994 0.732067 0.728975
          0.740634 0.740088 0.739 0.737405 0.735462 0.733675 0.741723 0.741307 0.740499 0.739371 0.738092 0.73699
          0.7425 0.742172 0.741551 0.740714 0.739804 0.739028 0.742902 0.742619 0.742088 0.741387 0.740637 0.739991
          0.732203 0.731289 0.729542 0.727203 0.72472 0.722301 0.732105 0.73102 0.728869 0.725914 0.723149 0.720742
          0.732043 0.730619 0.727508 0.722585 0.719226 0.717101 0.732294 0.730528 0.726009 0.715283 0.711733 0.711241
          0.733163 0.731657 0.728302 0.722705 0.717512 0.711417 0.734454 0.733267 0.730816 0.727123 0.72278 0.717757
          0.735949 0.735008 0.733113 0.73031 0.726813 0.72294 0.737496 0.736742 0.735237 0.733022 0.730252 0.727361
          0.738986 0.738389 0.73721 0.735509 0.733457 0.731492 0.740319 0.739856 0.738957 0.737699 0.736252 0.734951
          0.741404 0.741046 0.740364 0.739436 0.738408 0.737507 0.742167 0.74188 0.741341 0.740622 0.739843 0.739157
          0.742561 0.742309 0.741839 0.741219 0.740553 0.739961 0.731576 0.730682 0.728969 0.726644 0.724058 0.721457
          0.731533 0.730507 0.728501 0.725741 0.72284 0.720149 0.731573 0.730312 0.727713 0.723923 0.720306 0.717475
          0.731935 0.730474 0.727242 0.721898 0.717214 0.714028 0.732838 0.731504 0.728677 0.724282 0.719278 0.714215
          0.734166 0.733073 0.730844 0.727515 0.723476 0.719294 0.735716 0.734855 0.733139 0.730645 0.727633 0.72462
          0.737315 0.736645 0.735331 0.733459 0.731247 0.729117 0.738833 0.738316 0.737315 0.73592 0.734316 0.73283
          0.740168 0.739771 0.739012 0.737976 0.736817 0.735768 0.741239 0.74093 0.740347 0.739564 0.738705 0.737931
          0.741985 0.741734 0.741264 0.74064 0.739961 0.739344 0.742368 0.742145 0.741729 0.741181 0.740585 0.74004
          0.731304 0.730446 0.72879 0.726495 0.72384 0.721107 0.731317 0.730359 0.728479 0.725832 0.722814 0.719929
          0.73145 0.730322 0.728026 0.724625 0.720718 0.717624 0.731892 0.730625 0.727919 0.723547 0.718032 0.714786
          0.732803 0.731589 0.728995 0.72473 0.718829 0.714472 0.734127 0.733102 0.730975 0.727637 0.723194 0.718835
          0.735684 0.734879 0.733261 0.730858 0.727878 0.72501 0.737294 0.736681 0.735481 0.733772 0.731765 0.729886
          0.738812 0.73835 0.737462 0.736234 0.73484 0.733555 0.740135 0.739784 0.739119 0.738218 0.737216 0.736296
          0.741186 0.740913 0.740401 0.739716 0.738961 0.738265 0.741913 0.74169 0.741272 0.740718 0.740109 0.739541
          0.742285 0.742085 0.741713 0.74122 0.740679 0.740169 0.731303 0.730484 0.728886 0.726624 0.723932 0.721149
          0.73136 0.730457 0.728661 0.726043 0.722878 0.719908 0.73156 0.730514 0.728335 0.724872 0.720221 0.717146
          0.732051 0.730876 0.728263 0.723381 0.713879 0.712549 0.732961 0.731806 0.729203 0.724172 0.713744 0.710785
          0.734263 0.733279 0.731156 0.727478 0.721492 0.714029 0.735798 0.735032 0.733456 0.730998 0.727676 0.724231
          0.737388 0.736815 0.73568 0.734033 0.732038 0.730137 0.738885 0.73846 0.73764 0.736501 0.735195 0.733978
          0.740183 0.739864 0.739258 0.738438 0.737519 0.736662 0.741209 0.740962 0.740497 0.739875 0.739184 0.738533
          0.741917 0.741714 0.741334 0.740827 0.740266 0.73973 0.742277 0.742095 0.741755 0.741302 0.7408 0.740316
          0.731498 0.730723 0.729203 0.727023 0.724375 0.721572 0.731591 0.730749 0.729068 0.72659 0.723508 0.720344
          0.731844 0.730891 0.728913 0.725793 0.72158 0.717402 0.732374 0.731322 0.729035 0.725042 0.718624 0.711706
          0.733278 0.732238 0.729944 0.725822 0.718869 0.711019 0.734537 0.733632 0.731681 0.728304 0.722625 0.712853
          0.736021 0.735307 0.733831 0.731499 0.728224 0.724369 0.737564 0.737028 0.735962 0.734399 0.732462 0.730528
          0.73902 0.738623 0.737856 0.736783 0.735537 0.73435 0.740282 0.739986 0.739421 0.738653 0.737785 0.736961
          0.74128 0.74105 0.740618 0.740035 0.739384 0.738759 0.741968 0.741779 0.741424 0.74095 0.740419 0.739904
          0.742318 0.742148 0.74183 0.741405 0.740928 0.740463 0.731813 0.731086 0.729657 0.727593 0.725046 0.722289
          0.731934 0.731158 0.729609 0.727319 0.724418 0.721251 0.73223 0.731374 0.729617 0.726887 0.72317 0.71885
          0.732789 0.731868 0.729918 0.726685 0.721698 0.714248 0.733681 0.732774 0.730838 0.727596 0.722632 0.716052
          0.734888 0.734085 0.732396 0.729638 0.725556 0.720285 0.736305 0.735655 0.734329 0.73229 0.729573 0.726586
          0.737783 0.737286 0.7363 0.734866 0.733109 0.731348 0.739186 0.738813 0.738092 0.737082 0.735905 0.734766
          0.740407 0.740126 0.739592 0.73886 0.738028 0.737227 0.741375 0.741157 0.740745 0.740189 0.739561 0.738952
          0.742042 0.741863 0.741525 0.74107 0.740558 0.740056 0.742382 0.742221 0.741917 0.74151 0.74105 0.740596
          0.732174 0.731494 0.730153 0.728208 0.725785 0.723115 0.732315 0.731599 0.730172 0.728064 0.725373 0.722343
          0.732641 0.731869 0.7303 0.727904 0.724692 0.720878 0.733216 0.732403 0.730719 0.728047 0.724233 0.719274
          0.734089 0.733291 0.731629 0.728974 0.725171 0.720231 0.735244 0.734526 0.733046 0.730728 0.727529 0.723677
          0.736592 0.735996 0.734793 0.732981 0.730637 0.728078 0.738004 0.737536 0.736613 0.735277 0.733646 0.73198
          0.739352 0.738996 0.738306 0.737338 0.736201 0.73508 0.740534 0.740263 0.739745 0.739034 0.738218 0.737422
          0.741473 0.741262 0.740862 0.740318 0.739701 0.739096 0.742123 0.741949 0.74162 0.741176 0.740673 0.740176
          0.742455 0.742298 0.742002 0.741605 0.741153 0.740704 0.732521 0.731877 0.730608 0.72876 0.726439 0.723844
          0.732674 0.732002 0.730666 0.728688 0.726141 0.723195 0.733014 0.7323 0.730857 0.728664 0.725717 0.722094
          0.733591 0.732847 0.731321 0.728937 0.725595 0.721241 0.73444 0.733707 0.732195 0.729809 0.726415 0.721886
          0.735546 0.734877 0.733503 0.731362 0.728401 0.724707 0.736834 0.736267 0.735119 0.733383 0.731101 0.728499
          0.738191 0.737737 0.736836 0.73552 0.73388 0.732145 0.739495 0.739144 0.738462 0.737495 0.73634 0.735174
          0.740643 0.740375 0.739861 0.739148 0.738321 0.737503 0.741561 0.741351 0.740953 0.74041 0.739789 0.739176
          0.742196 0.742024 0.741698 0.741256 0.740753 0.740254 0.742521 0.742366 0.742074 0.741679 0.74123 0.740782
          0.732809 0.732191 0.730972 0.729192 0.726942 0.724405 0.732966 0.732324 0.731044 0.729144 0.726672 0.723744
          0.733309 0.732629 0.731253 0.729149 0.726278 0.722578 0.733878 0.733168 0.731709 0.729412 0.726122 0.721599
          0.734701 0.733995 0.732527 0.730172 0.726684 0.721657 0.735766 0.73511 0.733747 0.731566 0.728367 0.723915
          0.737009 0.736443 0.735283 0.733472 0.730949 0.72778 0.738325 0.737868 0.736948 0.735567 0.733768 0.731739
          0.739598 0.739243 0.738545 0.737536 0.736296 0.735002 0.740724 0.740453 0.739929 0.739194 0.738326 0.737457
          0.741627 0.741416 0.741013 0.74046 0.739821 0.739189 0.742253 0.742081 0.741753 0.741307 0.740797 0.740292
          0.742574 0.742419 0.742127 0.74173 0.741279 0.740828 0.733011 0.73241 0.731222 0.729487 0.727298 0.724847
          0.733168 0.732543 0.731296 0.729442 0.727032 0.724209 0.733508 0.732845 0.731499 0.729434 0.726605 0.722998
          0.734066 0.733368 0.731926 0.72963 0.72627 0.721503 0.734866 0.734163 0.732684 0.730248 0.726442 0.720377
          0.735902 0.735237 0.733833 0.731492 0.727754 0.721574 0.737114 0.736534 0.73532 0.733339 0.730324 0.72587
          0.738406 0.737934 0.73697 0.73547 0.733387 0.73079 0.73966 0.739296 0.738569 0.737493 0.736119 0.734613
          0.740775 0.740497 0.739957 0.739188 0.738263 0.737318 0.741669 0.741455 0.741044 0.740475 0.739813 0.739154
          0.742291 0.742116 0.741785 0.741332 0.740813 0.740297 0.742608 0.742453 0.742158 0.741759 0.741303 0.740848
          0.733113 0.73252 0.731348 0.729638 0.727489 0.725109 0.73327 0.732653 0.731421 0.729593 0.727233 0.724523
          0.733607 0.73295 0.731617 0.729576 0.726808 0.723409 0.734156 0.733462 0.732025 0.729735 0.726423 0.721971
          0.734944 0.734237 0.732746 0.730274 0.726436 0.720676 0.735963 0.735288 0.733849 0.731402 0.727384 0.72066
          0.73716 0.736566 0.735306 0.733179 0.729687 0.72354 0.73844 0.737956 0.736955 0.735354 0.733001 0.729736
          0.739687 0.739314 0.738564 0.737434 0.735944 0.734225 0.740796 0.740514 0.739961 0.739167 0.738196 0.737185
          0.741687 0.74147 0.741054 0.740473 0.739793 0.739113 0.742307 0.742131 0.741797 0.741339 0.740813 0.74029
          0.742624 0.742467 0.742171 0.741769 0.741309 0.740852
        </DataArray>
        <DataArray type="Float32" Name="process rank" NumberOfComponents="1" format="ascii">
          2 2 2 2 2 2 2 2 2 2 2 2
          2 2 2 2 2 2 2 2 2 2 2 2
          2 2 2 2 2 2 2 2 2 2 2 2
          2 2 2 2 2 2 2 2 2 2 2 2
          2 2 2 2 2 2 2 2 2 2 2 2
          2 2 2 2 2 2 2 2 2 2 2 2
          2 2 2 2 2 2 2 2 2 2 2 2
          2 2 2 2 2 2 2 2 2 2 2 2
          2 2 2 2 2 2 2 2 2 2 2 2
          2 2 2 2 2 2 2 2 2 2 2 2
          2 2 2 2 2 2 2 2 2 2 2 2
          2 2 2 2 2 2 2 2 2 2 2 2
          2 2 2 2 2 2 2 2 2 2 2 2
          2 2 2 2 2 2 2 2 2 2 2 2
          2 2 2 2 2 2 2 2 2 2 2 2
          2 2 2 2 2 2 2 2 2 2 2 2
          2 2 2 2 2 2 2 2 2 2 2 2
          2 2 2 2 2 2 2 2 2 2 2 2
          2 2 2 2 2 2 2 2 2 2 2 2
          2 2 2 2 2 2 2 2 2 2 2 2
          2 2 2 2 2 2 2 2 2 2 2 2
          2 2 2 2 2 2 2 2 2 2 2 2
          2 2 2 2 2 2 2 2 2 2 2 2
          2 2 2 2 2 2 2 2 2 2 2 2
          2 2 2 2 2 2 2 2 2 2 2 2
          2 2 2 2 2 2 2 2 2 2 2 2
          2 2 2 2 2 2 2 2 2 2 2 2
          2 2 2 2 2 2 2 2 2 2 2 2
          2 2 2 2 2 2 2 2 2 2 2 2
          2 2 2 2 2 2 2 2 2 2 2 2
          2 2 2 2 2 2 2 2 2 2 2 2
          2 2 2 2 2 2 2 2 2 2 2 2
          2 2 2 2 2 2 2 2 2 2 2 2
          2 2 2 2 2 2 2 2 2 2 2 2
          2 2 2 2 2 2 2 2 2 2 2 2
          2 2 2 2 2 2 2 2 2 2 2 2
          2 2 2 2 2 2 2 2 2 2 2 2
          2 2 2 2 2 2 2 2 2 2 2 2
          2 2 2 2 2 2 2 2 2 2 2 2
          2 2 2 2 2 2 2 2 2 2 2 2
          2 2 2 2 2 2 2 2 2 2 2 2
          2 2 2 2 2 2 2 2 2 2 2 2
          2 2 2 2 2 2 2 2 2 2 2 2
          2 2 2 2 2 2 2 2 2 2 2 2
          2 2 2 2 2 2 2 2 2 2 2 2
          2 2 2 2 2 2 2 2 2 2 2 2
          2 2 2 2 2 2 2 2 2 2 2 2
          2 2 2 2 2 2 2 2 2 2 2 2
          2 2 2 2 2 2 2 2 2 2 2 2
          2 2 2 2 2 2 2 2 2 2 2 2
          2 2 2 2 2 2 2 2 2 2 2 2
          2 2 2 2 2 2 2 2 2 2 2 2
          2 2 2 2 2 2 2 2 2 2 2 2
          2 2 2 2 2 2 2 2 2 2 2 2
          2 2 2 2 2 2 2 2 2 2 2 2
          2 2 2 2 2 2 2 2 2 2 2 2
          2 2 2 2 2 2 2 2 2 2 2 2
          2 2 2 2 2 2 2 2 2 2 2 2
          2 2 2 2 2 2 2 2 2 2 2 2
          2 2 2 2 2 2 2 2 2 2 2 2
          2 2 2 2 2 2 2 2 2 2 2 2
          2 2 2 2 2 2 2 2 2 2 2 2
          2 2 2 2 2 2 2 2 2 2 2 2
          2 2 2 2 2 2 2 2 2 2 2 2
          2 2 2 2 2 2 2 2 2 2 2 2
          2 2 2 2 2 2 2 2 2 2 2 2
          2 2 2 2 2 2 2 2 2 2 2 2
          2 2 2 2 2 2 2 2 2 2 2 2
          2 2 2 2 2 2 2 2 2 2 2 2
          2 2 2 2 2 2 2 2 2 2 2 2
          2 2 2 2 2 2 2 2 2 2 2 2
          2 2 2 2 2 2 2 2 2 2 2 2
          2 2 2 2 2 2 2 2 2 2 2 2
          2 2 2 2 2 2 2 2 2 2 2 2
          2 2 2 2 2 2 2 2 2 2 2 2
          2 2 2 2 2 2 2 2 2 2 2 2
          2 2 2 2 2 2 2 2 2 2 2 2
          2 2 2 2 2 2 2 2 2 2 2 2
          2 2 2 2 2 2 2 2 2 2 2 2
          2 2 2 2 2 2 2 2 2 2 2 2
          2 2 2 2 2 2 2 2 2 2 2 2
          2 2 2 2 2 2 2 2 2 2 2 2
          2 2 2 2 2 2 2 2 2 2 2 2
          2 2 2 2 2 2 2 2 2 2 2 2
          2 2 2 2 2 2
        </DataArray>
      </CellData>
      <Points>
        <DataArray type="Float32" Name="Coordinates" NumberOfComponents="3" format="ascii">
          -0.04 -0.04 -0.078 -0.0338462 -0.04 -0.078 -0.04 -0.0338462 -0.078 -0.0338462 -0.0338462 -0.078
          -0.04 -0.04 -0.072 -0.0338462 -0.04 -0.072 -0.04 -0.0338462 -0.072 -0.0338462 -0.0338462 -0.072
          -0.0276923 -0.04 -0.078 -0.0276923 -0.0338462 -0.078 -0.0276923 -0.04 -0.072 -0.0276923 -0.0338462 -0.072
          -0.0215385 -0.04 -0.078 -0.0215385 -0.0338462 -0.078 -0.0215385 -0.04 -0.072 -0.0215385 -0.0338462 -0.072
          -0.0153846 -0.04 -0.078 -0.0153846 -0.0338462 -0.078 -0.0153846 -0.04 -0.072 -0.0153846 -0.0338462 -0.072
          -0.00923077 -0.04 -0.078 -0.00923077 -0.0338462 -0.078 -0.00923077 -0.04 -0.072 -0.00923077 -0.0338462 -0.072
          -0.00307692 -0.04 -0.078 -0.00307692 -0.0338462 -0.078 -0.00307692 -0.04 -0.072 -0.00307692 -0.0338462 -0.072
          -0.04 -0.0276923 -0.078 -0.0338462 -0.0276923 -0.078 -0.04 -0.0276923 -0.072 -0.0338462 -0.0276923 -0.072
          -0.0276923 -0.0276923 -0.078 -0.0276923 -0.0276923 -0.072 -0.0215385 -0.0276923 -0.078 -0.0215385 -0.0276923 -0.072
          -0.0153846 -0.0276923 -0.078 -0.0153846 -0.0276923 -0.072 -0.00923077 -0.0276923 -0.078 -0.00923077 -0.0276923 -0.072
          -0.00307692 -0.0276923 -0.078 -0.00307692 -0.0276923 -0.072 -0.04 -0.0215385 -0.078 -0.0338462 -0.0215385 -0.078
          -0.04 -0.0215385 -0.072 -0.0338462 -0.0215385 -0.072 -0.0276923 -0.0215385 -0.078 -0.0276923 -0.0215385 -0.072
          -0.0215385 -0.0215385 -0.078 -0.0215385 -0.0215385 -0.072 -0.0153846 -0.0215385 -0.078 -0.0153846 -0.0215385 -0.072
          -0.00923077 -0.0215385 -0.078 -0.00923077 -0.0215385 -0.072 -0.00307692 -0.0215385 -0.078 -0.00307692 -0.0215385 -0.072
          -0.04 -0.0153846 -0.078 -0.0338462 -0.0153846 -0.078 -0.04 -0.0153846 -0.072 -0.0338462 -0.0153846 -0.072
          -0.0276923 -0.0153846 -0.078 -0.0276923 -0.0153846 -0.072 -0.0215385 -0.0153846 -0.078 -0.0215385 -0.0153846 -0.072
          -0.0153846 -0.0153846 -0.078 -0.0153846 -0.0153846 -0.072 -0.00923077 -0.0153846 -0.078 -0.00923077 -0.0153846 -0.072
          -0.00307692 -0.0153846 -0.078 -0.00307692 -0.0153846 -0.072 -0.04 -0.00923077 -0.078 -0.0338462 -0.00923077 -0.078
          -0.04 -0.00923077 -0.072 -0.0338462 -0.00923077 -0.072 -0.0276923 -0.00923077 -0.078 -0.0276923 -0.00923077 -0.072
          -0.0215385 -0.00923077 -0.078 -0.0215385 -0.00923077 -0.072 -0.0153846 -0.00923077 -0.078 -0.0153846 -0.00923077 -0.072
          -0.00923077 -0.00923077 -0.078 -0.00923077 -0.00923077 -0.072 -0.00307692 -0.00923077 -0.078 -0.00307692 -0.00923077 -0.072
          -0.04 -0.00307692 -0.078 -0.0338462 -0.00307692 -0.078 -0.04 -0.00307692 -0.072 -0.0338462 -0.00307692 -0.072
          -0.0276923 -0.00307692 -0.078 -0.0276923 -0.00307692 -0.072 -0.0215385 -0.00307692 -0.078 -0.0215385 -0.00307692 -0.072
          -0.0153846 -0.00307692 -0.078 -0.0153846 -0.00307692 -0.072 -0.00923077 -0.00307692 -0.078 -0.00923077 -0.00307692 -0.072
          -0.00307692 -0.00307692 -0.078 -0.00307692 -0.00307692 -0.072 -0.04 0.00307692 -0.078 -0.0338462 0.00307692 -0.078
          -0.04 0.00307692 -0.072 -0.0338462 0.00307692 -0.072 -0.0276923 0.00307692 -0.078 -0.0276923 0.00307692 -0.072
          -0.0215385 0.00307692 -0.078 -0.0215385 0.00307692 -0.072 -0.0153846 0.00307692 -0.078 -0.0153846 0.00307692 -0.072
          -0.00923077 0.00307692 -0.078 -0.00923077 0.00307692 -0.072 -0.00307692 0.00307692 -0.078 -0.00307692 0.00307692 -0.072
          -0.04 0.00923077 -0.078 -0.0338462 0.00923077 -0.078 -0.04 0.00923077 -0.072 -0.0338462 0.00923077 -0.072
          -0.0276923 0.00923077 -0.078 -0.0276923 0.00923077 -0.072 -0.0215385 0.00923077 -0.078 -0.0215385 0.00923077 -0.072
          -0.0153846 0.00923077 -0.078 -0.0153846 0.00923077 -0.072 -0.00923077 0.00923077 -0.078 -0.00923077 0.00923077 -0.072
          -0.00307692 0.00923077 -0.078 -0.00307692 0.00923077 -0.072 -0.04 0.0153846 -0.078 -0.0338462 0.0153846 -0.078
          -0.04 0.0153846 -0.072 -0.0338462 0.0153846 -0.072 -0.0276923 0.0153846 -0.078 -0.0276923 0.0153846 -0.072
          -0.0215385 0.0153846 -0.078 -0.0215385 0.0153846 -0.072 -0.0153846 0.0153846 -0.078 -0.0153846 0.0153846 -0.072
          -0.00923077 0.0153846 -0.078 -0.00923077 0.0153846 -0.072 -0.00307692 0.0153846 -0.078 -0.00307692 0.0153846 -0.072
          -0.04 0.0215385 -0.078 -0.0338462 0.0215385 -0.078 -0.04 0.0215385 -0.072 -0.0338462 0.0215385 -0.072
          -0.0276923 0.0215385 -0.078 -0.0276923 0.0215385 -0.072 -0.0215385 0.0215385 -0.078 -0.0215385 0.0215385 -0.072
          -0.0153846 0.0215385 -0.078 -0.0153846 0.0215385 -0.072 -0.00923077 0.0215385 -0.078 -0.00923077 0.0215385 -0.072
          -0.00307692 0.0215385 -0.078 -0.00307692 0.0215385 -0.072 -0.04 0.0276923 -0.078 -0.0338462 0.0276923 -0.078
          -0.04 0.0276923 -0.072 -0.0338462 0.0276923 -0.072 -0.0276923 0.0276923 -0.078 -0.0276923 0.0276923 -0.072
          -0.0215385 0.0276923 -0.078 -0.0215385 0.0276923 -0.072 -0.0153846 0.0276923 -0.078 -0.0153846 0.0276923 -0.072
          -0.00923077 0.0276923 -0.078 -0.00923077 0.0276923 -0.072 -0.00307692 0.0276923 -0.078 -0.00307692 0.0276923 -0.072
          -0.04 0.0338462 -0.078 -0.0338462 0.0338462 -0.078 -0.04 0.0338462 -0.072 -0.0338462 0.0338462 -0.072
          -0.0276923 0.0338462 -0.078 -0.0276923 0.0338462 -0.072 -0.0215385 0.0338462 -0.078 -0.0215385 0.0338462 -0.072
          -0.0153846 0.0338462 -0.078 -0.0153846 0.0338462 -0.072 -0.00923077 0.0338462 -0.078 -0.00923077 0.0338462 -0.072
          -0.00307692 0.0338462 -0.078 -0.00307692 0.0338462 -0.072 -0.04 0.04 -0.078 -0.0338462 0.04 -0.078
          -0.04 0.04 -0.072 -0.0338462 0.04 -0.072 -0.0276923 0.04 -0.078 -0.0276923 0.04 -0.072
          -0.0215385 0.04 -0.078 -0.0215385 0.04 -0.072 -0.0153846 0.04 -0.078 -0.0153846 0.04 -0.072
          -0.00923077 0.04 -0.078 -0.00923077 0.04 -0.072 -0.00307692 0.04 -0.078 -0.00307692 0.04 -0.072
          -0.04 -0.04 -0.066 -0.0338462 -0.04 -0.066 -0.04 -0.0338462 -0.066 -0.0338462 -0.0338462 -0.066
          -0.0276923 -0.04 -0.066 -0.0276923 -0.0338462 -0.066 -0.0215385 -0.04 -0.066 -0.0215385 -0.0338462 -0.066
          -0.0153846 -0.04 -0.066 -0.0153846 -0.0338462 -0.066 -0.00923077 -0.04 -0.066 -0.00923077 -0.0338462 -0.066
          -0.00307692 -0.04 -0.066 -0.00307692 -0.0338462 -0.066 -0.04 -0.0276923 -0.066 -0.0338462 -0.0276923 -0.066
          -0.0276923 -0.0276923 -0.066 -0.0215385 -0.0276923 -0.066 -0.0153846 -0.0276923 -0.066 -0.00923077 -0.0276923 -0.066
          -0.00307692 -0.0276923 -0.066 -0.04 -0.0215385 -0.066 -0.0338462 -0.0215385 -0.066 -0.0276923 -0.0215385 -0.066
          -0.0215385 -0.0215385 -0.066 -0.0153846 -0.0215385 -0.066 -0.00923077 -0.0215385 -0.066 -0.00307692 -0.0215385 -0.066
          -0.04 -0.0153846 -0.066 -0.0338462 -0.0153846 -0.066 -0.0276923 -0.0153846 -0.066 -0.0215385 -0.0153846 -0.066
          -0.0153846 -0.0153846 -0.066 -0.00923077 -0.0153846 -0.066 -0.00307692 -0.0153846 -0.066 -0.04 -0.00923077 -0.066
          -0.0338462 -0.00923077 -0.066 -0.0276923 -0.00923077 -0.066 -0.0215385 -0.00923077 -0.066 -0.0153846 -0.00923077 -0.066
          -0.00923077 -0.00923077 -0.066 -0.00307692 -0.00923077 -0.066 -0.04 -0.00307692 -0.066 -0.0338462 -0.00307692 -0.066
          -0.0276923 -0.00307692 -0.066 -0.0215385 -0.00307692 -0.066 -0.0153846 -0.00307692 -0.066 -0.00923077 -0.00307692 -0.066