<?xml version="1.0"?>
<VTKFile type="UnstructuredGrid" version="0.1" byte_order="LittleEndian">
  <UnstructuredGrid>
    <Piece NumberOfCells="936" NumberOfPoints="1274">
      <CellData Scalars="p (Pa)">
        <DataArray type="Float32" Name="p (Pa)" NumberOfComponents="1" format="ascii">
          -425527 -426627 -428716 -431576 -434893 -438292 -425130 -426240 -428349 -431238 -434594 -438034
          -424310 -425432 -427567 -430497 -433905 -437400 -423030 -424156 -426300 -429247 -432679 -436201
          -421274 -422384 -424498 -427404 -430788 -434259 -419069 -420138 -422171 -424962 -428203 -431520
          -416503 -417507 -419413 -422019 -425036 -428111 -413727 -414649 -416395 -418774 -421517 -424303
          -410937 -411770 -413344 -415482 -417939 -420434 -408353 -409100 -410511 -412423 -414618 -416848
          -406190 -406865 -408139 -409863 -411842 -413860 -404634 -405258 -406433 -408024 -409852 -411722
          -403820 -404417 -405541 -407064 -408814 -410609 -429141 -430364 -432689 -435878 -439577 -443353
          -428755 -429994 -432354 -435595 -439365 -443217 -427948 -429210 -431618 -434936 -438809 -442780
          -426668 -427943 -430380 -433749 -437695 -441755 -424880 -426144 -428560 -431901 -435818 -439851
          -422603 -423821 -426148 -429358 -433106 -436947 -419923 -421066 -423241 -426227 -429690 -433212
          -416999 -418043 -420025 -422729 -425844 -428988 -414040 -414977 -416748 -419154 -421909 -424679
          -411287 -412120 -413690 -415816 -418242 -420682 -408975 -409719 -411121 -413015 -415175 -417353
          -407308 -407989 -409271 -411001 -412975 -414974 -406436 -407084 -408303 -409949 -411829 -413737
          -436341 -437824 -440652 -444546 -449072 -453670 -435983 -437497 -440394 -444397 -449075 -453849
          -435209 -436771 -439770 -443943 -448862 -453926 -433934 -435532 -438612 -442923 -448049 -453385
          -432087 -433685 -436767 -441087 -446240 -451628 -429666 -431212 -434187 -438340 -443258 -448348
          -426755 -428202 -430973 -434810 -439294 -443854 -423526 -424839 -427342 -430774 -434731 -438690
          -420219 -421383 -423589 -426588 -430009 -433393 -417113 -418131 -420052 -422646 -425583 -428479
          -414490 -415383 -417063 -419323 -421874 -424395 -412592 -413396 -414904 -416929 -419216 -421486
          -411597 -412354 -413774 -415679 -417831 -419976 -447172 -449077 -452732 -457802 -463731 -469740
          -446865 -448832 -452623 -457919 -464176 -470586 -446158 -448221 -452224 -457885 -464690 -471808
          -444906 -447052 -451241 -457231 -464561 -472429 -442983 -445152 -449393 -455478 -462974 -471133
          -440348 -442457 -446565 -452418 -459532 -467109 -437082 -439054 -442872 -448239 -454617 -461166
          -433376 -435157 -438577 -443317 -448823 -454289 -429518 -431075 -434043 -438101 -442725 -447210
          -425850 -427185 -429710 -433124 -436961 -440647 -422728 -423871 -426022 -428906 -432126 -435221
          -420458 -421464 -423349 -425866 -428670 -431380 -419266 -420201 -421949 -424279 -426875 -429398
          -461653 -464179 -469062 -475913 -484013 -492246 -461432 -464073 -469215 -476520 -485311 -494430
          -460843 -463666 -469226 -477284 -487283 -498080 -459652 -462642 -468589 -477367 -488611 -501400
          -457644 -460703 -466801 -475851 -487586 -501369 -454729 -457721 -463656 -472363 -483395 -495781
          -450978 -453784 -459304 -467256 -476979 -487187 -446608 -449136 -454062 -461032 -469284 -477451
          -441964 -444151 -448365 -454212 -460929 -467310 -437486 -439321 -442817 -447578 -452920 -457900
          -433640 -435169 -438054 -441927 -446213 -450200 -430833 -432143 -434597 -437863 -441456 -444822
          -429355 -430551 -432786 -435748 -439003 -442074 -479729 -483102 -489690 -499074 -510351 -521905
          -479638 -483213 -490274 -500527 -513207 -526641 -479232 -483136 -490975 -502719 -517979 -535285
          -478153 -482367 -490951 -504182 -522282 -544762 -476062 -480424 -489335 -503157 -522394 -547761
          -472803 -477103 -485830 -499135 -516951 -538529 -468434 -472499 -480672 -492879 -508470 -525408
          -463197 -466872 -474201 -484956 -498223 -511490 -457501 -460654 -466852 -475711 -486168 -495955
          -451922 -454511 -459513 -466455 -474331 -481449 -447087 -449181 -453163 -458554 -464511 -469857
          -443546 -445286 -448557 -452915 -457668 -461969 -441679 -443238 -446152 -450004 -454188 -458009
          -501198 -505652 -514450 -527205 -542857 -559088 -501283 -506071 -515678 -530010 -548376 -568410
          -501130 -506468 -517440 -534590 -558311 -587046 -500213 -506083 -518395 -538460 -568525 -610628
          -498031 -504172 -517076 -538158 -570083 -618388 -494357 -500471 -513212 -533547 -562590 -600735
          -489238 -495095 -507229 -526281 -552256 -581861 -482924 -488280 -499337 -516603 -539864 -564725
          -475886 -480458 -489731 -503704 -521316 -538109 -468879 -472553 -479815 -490257 -502526 -513426
          -462761 -465640 -471191 -478852 -487417 -494857 -458270 -460587 -464972 -470857 -477263 -482864
          -455903 -457936 -461745 -466789 -472224 -477032 -525658 -531381 -542803 -559654 -580806 -603099
          -525950 -532179 -544870 -564352 -590403 -619964 -526091 -533167 -548063 -572511 -609277 -658472
          -525347 -533259 -550379 -580265 -631491 -719835 -523024 -531370 -549404 -580498 -631837 -717218
          -518831 -527237 -545241 -575408 -621492 -685491 -512813 -521018 -538631 -568174 -612659 -668213
          -505211 -512847 -529374 -557795 -603511 -667739 -496542 -503048 -516827 -539362 -571654 -606622
          -487785 -492904 -503352 -519221 -539256 -557590 -480100 -483987 -491634 -502520 -515080 -525823
          -474458 -477487 -483283 -491174 -499832 -507190 -471489 -474091 -478995 -485526 -492548 -498584
          -552495 -559573 -573775 -594948 -621978 -651019 -552993 -560756 -576705 -601651 -636255 -677685
          -553403 -562328 -581396 -613898 -667411 -753142 -552754 -562851 -585187 -626794 -713701 -988928
          -550139 -560864 -584480 -626980 -703948 -856876 -545224 -556156 -580085 -621898 -690300 -793391
          -538082 -548958 -573106 -616544 -691129 -805951 -528959 -539274 -562734 -608104 -704972 -1.004e+06
          -518412 -527216 -546777 -582196 -643919 -737223 -507664 -514474 -528876 -552293 -585261 -619205
          -498216 -503248 -513372 -528358 -546549 -562410 -491296 -495108 -502494 -512743 -524191 -533774
          -487666 -490879 -496978 -505172 -514014 -521452 -580945 -589365 -606204 -631168 -662866 -697063
          -581623 -590872 -609754 -638888 -678432 -725014 -582215 -592869 -615361 -652537 -709770 -791939
          -581462 -593538 -619819 -666226 -748492 -906598 -578234 -591140 -619374 -669106 -753986 -900558
          -572195 -585457 -614633 -665976 -750519 -877843 -563524 -576837 -606816 -662140 -760817 -920775
          -552563 -565297 -594879 -654135 -784053 -1.1374e+06 -539969 -550912 -576060 -625251 -727945 -989154
          -527156 -535548 -553798 -585255 -634672 -696168 -515935 -522024 -534507 -553632 -578116 -600581
          -507755 -512280 -521141 -533654 -547922 -559873 -503479 -507244 -514434 -524178 -534760 -543564
          -610164 -619949 -639346 -667630 -702842 -740758 -611038 -621830 -643575 -676182 -718602 -767650
          -611772 -624272 -650176 -691014 -748816 -827300 -610672 -624853 -655094 -705437 -784110 -917789
          -606266 -621264 -653633 -708740 -797465 -945218 -598385 -613601 -646901 -704934 -799852 -947687
          -587528 -602616 -636530 -698844 -809248 -991772 -574298 -588598 -621746 -687133 -820412 -1.08794e+06
          -559534 -571827 -600331 -657290 -781906 -1.12693e+06 -544776 -554167 -574795 -611125 -670513 -748564
          -531994 -538763 -552738 -574458 -602902 -629577 -522746 -527741 -537564 -551547 -567656 -581201
          -517932 -522069 -529992 -540775 -552538 -562307 -639115 -650430 -672640 -704288 -742310 -782734
          -640296 -652982 -678267 -714853 -758980 -807902 -641288 -656356 -687359 -733900 -790271 -859793
          -639664 -656945 -693907 -752790 -825135 -929993 -633284 -650788 -688302 -749631 -837313 -970201
          -622564 -639454 -676083 -738559 -837777 -993721 -608703 -624769 -660531 -725330 -839552 -1.03268e+06
          -592745 -607525 -641398 -707344 -843150 -1.14774e+06 -575757 -588254 -616858 -672810 -792184 -1.11912e+06
          -559327 -568836 -589514 -625318 -682610 -756837 -545372 -552246 -566349 -588041 -616109 -642369
          -535379 -540481 -550483 -564650 -580906 -594655 -530204 -534450 -542568 -553599 -565636 -575712
        </DataArray>
        <DataArray type="Float32" Name="saturation" NumberOfComponents="1" format="ascii">
          0.753126 0.753022 0.752825 0.752558 0.752249 0.751935 0.753164 0.753059 0.75286 0.752589 0.752277 0.751959
          0.753241 0.753135 0.752934 0.752658 0.752341 0.752017 0.753363 0.753256 0.753053 0.752776 0.752455 0.752128
          0.75353 0.753424 0.753223 0.752949 0.752631 0.752308 0.753741 0.753638 0.753444 0.753179 0.752874 0.752563
          0.753987 0.753891 0.753708 0.753459 0.753172 0.752882 0.754256 0.754166 0.753998 0.753769 0.753507 0.753242
          0.754527 0.754446 0.754293 0.754086 0.753849 0.75361 0.754779 0.754706 0.754568 0.754382 0.754169 0.753954
          0.754992 0.754925 0.7548 0.754632 0.754439 0.754243 0.755145 0.755084 0.754968 0.754812 0.754633 0.75445
          0.755226 0.755167 0.755056 0.754906 0.754734 0.754559 0.752786 0.752671 0.752454 0.752158 0.751817 0.751471
          0.752822 0.752706 0.752485 0.752184 0.751836 0.751483 0.752898 0.752779 0.752554 0.752245 0.751887 0.751523
          0.753018 0.752898 0.752669 0.752355 0.75199 0.751617 0.753187 0.753068 0.75284 0.752527 0.752163 0.751791
          0.753403 0.753288 0.753067 0.752765 0.752415 0.752059 0.753659 0.75355 0.753343 0.75306 0.752734 0.752405
          0.75394 0.753839 0.753649 0.753391 0.753096 0.7528 0.754225 0.754135 0.753964 0.753733 0.753469 0.753206
          0.754493 0.754412 0.754259 0.754054 0.75382 0.753586 0.754718 0.754646 0.754509 0.754325 0.754115 0.753905
          0.754882 0.754815 0.754689 0.75452 0.754328 0.754135 0.754968 0.754904 0.754784 0.754623 0.75444 0.754255
          0.752115 0.751978 0.751718 0.751362 0.750952 0.75054 0.752148 0.752008 0.751742 0.751376 0.750952 0.750524
          0.75222 0.752075 0.751799 0.751417 0.750971 0.750517 0.752338 0.75219 0.751905 0.75151 0.751045 0.750565
          0.75251 0.752361 0.752075 0.751678 0.751208 0.750722 0.752736 0.752592 0.752314 0.75193 0.75148 0.751018
          0.75301 0.752874 0.752614 0.752257 0.751842 0.751425 0.753316 0.753191 0.752955 0.752633 0.752264 0.751898
          0.753631 0.75352 0.75331 0.753026 0.752704 0.752388 0.753929 0.753831 0.753647 0.753399 0.753121 0.752848
          0.754182 0.754095 0.753933 0.753716 0.753473 0.753233 0.754366 0.754288 0.754142 0.753946 0.753727 0.75351
          0.754462 0.754389 0.754251 0.754067 0.753859 0.753654 0.751124 0.750952 0.750623 0.750172 0.749649 0.749126
          0.751152 0.750974 0.750633 0.750162 0.74961 0.749053 0.751216 0.751029 0.750669 0.750165 0.749565 0.748947
          0.751329 0.751135 0.750757 0.750223 0.749577 0.748894 0.751505 0.751307 0.750923 0.750378 0.749716 0.749005
          0.751746 0.751553 0.751179 0.750652 0.750019 0.749354 0.752046 0.751865 0.751515 0.751027 0.750455 0.749875
          0.75239 0.752224 0.751908 0.751474 0.750975 0.750484 0.75275 0.752604 0.752328 0.751952 0.751528 0.75112
          0.753095 0.75297 0.752732 0.752413 0.752057 0.751718 0.753392 0.753283 0.753079 0.752808 0.752506 0.752218
          0.753608 0.753512 0.753332 0.753094 0.75283 0.752576 0.753722 0.753632 0.753466 0.753244 0.752999 0.752761
          0.749832 0.74961 0.749185 0.748595 0.747906 0.747217 0.749851 0.74962 0.749171 0.748543 0.747797 0.747036
          0.749903 0.749655 0.74917 0.748477 0.747631 0.746736 0.750008 0.749745 0.749226 0.74847 0.74752 0.746464
          0.750186 0.749916 0.749381 0.7486 0.747606 0.746466 0.750445 0.750179 0.749656 0.748899 0.747958 0.746925
          0.750781 0.750529 0.750039 0.749342 0.748503 0.747639 0.751175 0.750947 0.750505 0.749887 0.749166 0.748463
          0.751598 0.751398 0.751016 0.750491 0.749896 0.749337 0.752009 0.75184 0.75152 0.751087 0.750607 0.750163
          0.752365 0.752223 0.751957 0.751601 0.751211 0.750851 0.752627 0.752505 0.752276 0.751974 0.751644 0.751337
          0.752765 0.752653 0.752445 0.75217 0.751869 0.751588 0.748269 0.747983 0.74743 0.746654 0.745738 0.744819
          0.748277 0.747974 0.747381 0.746535 0.74551 0.744448 0.748311 0.74798 0.747323 0.746356 0.74513 0.743778
          0.748403 0.748045 0.747325 0.746237 0.74479 0.743054 0.748582 0.74821 0.74746 0.74632 0.744781 0.742828
          0.748861 0.748493 0.747753 0.746649 0.745211 0.743529 0.749239 0.748888 0.748189 0.747165 0.74589 0.744544
          0.749696 0.749375 0.748741 0.747827 0.746724 0.745647 0.750199 0.74992 0.749377 0.748612 0.747725 0.74691
          0.750696 0.750465 0.750021 0.749411 0.74873 0.748123 0.751132 0.750942 0.750585 0.750105 0.749581 0.749116
          0.751453 0.751295 0.750999 0.750607 0.750184 0.749804 0.751624 0.751481 0.751216 0.750868 0.750493 0.750154
          0.74648 0.746118 0.74541 0.744404 0.743199 0.741983 0.746473 0.746084 0.745312 0.744186 0.742782 0.741299
          0.746486 0.746052 0.745172 0.743831 0.74204 0.739962 0.746561 0.746083 0.745097 0.743534 0.741291 0.738327
          0.74674 0.746238 0.745201 0.743557 0.741177 0.737801 0.747042 0.74654 0.745509 0.743912 0.741725 0.739006
          0.747468 0.746981 0.74599 0.744476 0.742491 0.74033 0.747998 0.747548 0.746632 0.745239 0.743427 0.741568
          0.748597 0.748207 0.747427 0.746276 0.744866 0.743561 0.749201 0.748883 0.748262 0.747383 0.746372 0.745492
          0.749734 0.749483 0.749 0.748344 0.74762 0.747001 0.75013 0.749926 0.749541 0.749029 0.748479 0.748003
          0.750341 0.75016 0.749824 0.749382 0.748911 0.748499 0.744525 0.744079 0.743203 0.741941 0.740405 0.738842
          0.744502 0.744017 0.743046 0.741595 0.739726 0.737695 0.744491 0.743941 0.742805 0.741001 0.738419 0.735182
          0.744549 0.743934 0.742631 0.740444 0.736928 0.731452 0.744731 0.74408 0.742704 0.740427 0.736905 0.731605
          0.745062 0.744401 0.743018 0.740792 0.737593 0.733501 0.745541 0.744889 0.743521 0.741316 0.738188 0.734569
          0.746153 0.745538 0.744235 0.742078 0.738814 0.734598 0.746862 0.746329 0.745221 0.743465 0.741063 0.7386
          0.747589 0.747163 0.746304 0.745031 0.743473 0.742094 0.748237 0.747909 0.747268 0.746372 0.74536 0.744512
          0.748719 0.74846 0.747968 0.747307 0.746592 0.745993 0.748975 0.748751 0.748331 0.747779 0.747192 0.746694
          0.742473 0.741947 0.74091 0.739408 0.73756 0.735658 0.742436 0.74186 0.740699 0.738942 0.736615 0.73398
          0.742405 0.741744 0.740363 0.738104 0.734619 0.729553 0.742453 0.741705 0.740094 0.737239 0.731811 0.718066
          0.742649 0.741852 0.740144 0.737227 0.732388 0.724119 0.74302 0.7422 0.740457 0.737566 0.733208 0.727363
          0.743563 0.742738 0.740958 0.737925 0.733158 0.726702 0.744267 0.743472 0.741714 0.738499 0.732327 0.717426
          0.745095 0.744403 0.742902 0.740306 0.736115 0.73045 0.745955 0.745408 0.744274 0.742488 0.740089 0.737746
          0.746724 0.746313 0.745496 0.744314 0.742919 0.741738 0.747296 0.74698 0.746374 0.745547 0.74464 0.743894
          0.747599 0.747331 0.746826 0.746157 0.745445 0.744855 0.740395 0.739799 0.738629 0.736949 0.734904 0.7328
          0.740347 0.739693 0.738386 0.736443 0.733934 0.731151 0.740305 0.739553 0.738005 0.73556 0.732043 0.72744
          0.740359 0.739506 0.737705 0.734693 0.729813 0.721738 0.740589 0.739674 0.737735 0.734513 0.729506 0.722021
          0.741024 0.740075 0.738055 0.734709 0.7297 0.723099 0.741656 0.74069 0.738587 0.73495 0.729127 0.721083
          0.742468 0.741526 0.739412 0.735458 0.727861 0.712152 0.743419 0.742591 0.740745 0.737342 0.730982 0.718056
          0.744408 0.743758 0.742375 0.740089 0.736719 0.732854 0.745292 0.74481 0.743838 0.742388 0.740598 0.739016
          0.745948 0.745584 0.744879 0.743904 0.742816 0.741925 0.746294 0.745989 0.745411 0.744641 0.743818 0.743145
          0.738358 0.737696 0.736413 0.734605 0.732454 0.73025 0.738299 0.73757 0.736138 0.734073 0.731524 0.728751
          0.738249 0.737407 0.735712 0.733165 0.729795 0.7256 0.738324 0.737368 0.735397 0.732299 0.727858 0.72122
          0.738625 0.737608 0.73549 0.732104 0.727147 0.719976 0.739168 0.738125 0.735923 0.732329 0.727022 0.719866
          0.739928 0.738876 0.736597 0.732693 0.72653 0.717944 0.740872 0.739853 0.737576 0.733401 0.725953 0.714032
          0.74195 0.741051 0.739033 0.735257 0.727977 0.712543 0.743053 0.742348 0.740836 0.738293 0.734425 0.729809
          0.744032 0.743511 0.742455 0.740861 0.738856 0.737054 0.744753 0.744362 0.743603 0.742544 0.741354 0.740377
          0.745133 0.744806 0.744187 0.743357 0.74247 0.741745 0.736428 0.735695 0.734293 0.732368 0.730162 0.727932
          0.736351 0.735532 0.733944 0.731744 0.729228 0.7266 0.736286 0.735317 0.733387 0.73064 0.727529 0.723976
          0.736392 0.735279 0.73299 0.729573 0.725711 0.720662 0.73681 0.735673 0.73333 0.729749 0.725093 0.718874
          0.737521 0.736406 0.734079 0.730374 0.72507 0.717861 0.738458 0.737374 0.735052 0.731133 0.72498 0.716236
          0.739561 0.738538 0.736279 0.732186 0.7248 0.711769 0.740767 0.739877 0.737904 0.734282 0.727427 0.712837
          0.741965 0.741268 0.739788 0.737337 0.733677 0.729347 0.743008 0.742491 0.741449 0.739892 0.737955 0.736216
          0.743771 0.74338 0.742623 0.741573 0.740398 0.739428 0.74417 0.743842 0.743221 0.74239 0.741501 0.74077
        </DataArray>
        <DataArray type="Float32" Name="process rank" NumberOfComponents="1" format="ascii">
          0 0 0 0 0 0 0 0 0 0 0 0
          0 0 0 0 0 0 0 0 0 0 0 0
          0 0 0 0 0 0 0 0 0 0 0 0
          0 0 0 0 0 0 0 0 0 0 0 0
          0 0 0 0 0 0 0 0 0 0 0 0
          0 0 0 0 0 0 0 0 0 0 0 0
          0 0 0 0 0 0 0 0 0 0 0 0
          0 0 0 0 0 0 0 0 0 0 0 0
          0 0 0 0 0 0 0 0 0 0 0 0
          0 0 0 0 0 0 0 0 0 0 0 0
          0 0 0 0 0 0 0 0 0 0 0 0
          0 0 0 0 0 0 0 0 0 0 0 0
          0 0 0 0 0 0 0 0 0 0 0 0
          0 0 0 0 0 0 0 0 0 0 0 0
          0 0 0 0 0 0 0 0 0 0 0 0
          0 0 0 0 0 0 0 0 0 0 0 0
          0 0 0 0 0 0 0 0 0 0 0 0
          0 0 0 0 0 0 0 0 0 0 0 0
          0 0 0 0 0 0 0 0 0 0 0 0
          0 0 0 0 0 0 0 0 0 0 0 0
          0 0 0 0 0 0 0 0 0 0 0 0
          0 0 0 0 0 0 0 0 0 0 0 0
          0 0 0 0 0 0 0 0 0 0 0 0
          0 0 0 0 0 0 0 0 0 0 0 0
          0 0 0 0 0 0 0 0 0 0 0 0
          0 0 0 0 0 0 0 0 0 0 0 0
          0 0 0 0 0 0 0 0 0 0 0 0
          0 0 0 0 0 0 0 0 0 0 0 0
          0 0 0 0 0 0 0 0 0 0 0 0
          0 0 0 0 0 0 0 0 0 0 0 0
          0 0 0 0 0 0 0 0 0 0 0 0
          0 0 0 0 0 0 0 0 0 0 0 0
          0 0 0 0 0 0 0 0 0 0 0 0
          0 0 0 0 0 0 0 0 0 0 0 0
          0 0 0 0 0 0 0 0 0 0 0 0
          0 0 0 0 0 0 0 0 0 0 0 0
          0 0 0 0 0 0 0 0 0 0 0 0
          0 0 0 0 0 0 0 0 0 0 0 0
          0 0 0 0 0 0 0 0 0 0 0 0
          0 0 0 0 0 0 0 0 0 0 0 0
          0 0 0 0 0 0 0 0 0 0 0 0
          0 0 0 0 0 0 0 0 0 0 0 0
          0 0 0 0 0 0 0 0 0 0 0 0
          0 0 0 0 0 0 0 0 0 0 0 0
          0 0 0 0 0 0 0 0 0 0 0 0
          0 0 0 0 0 0 0 0 0 0 0 0
          0 0 0 0 0 0 0 0 0 0 0 0
          0 0 0 0 0 0 0 0 0 0 0 0
          0 0 0 0 0 0 0 0 0 0 0 0
          0 0 0 0 0 0 0 0 0 0 0 0
          0 0 0 0 0 0 0 0 0 0 0 0
          0 0 0 0 0 0 0 0 0 0 0 0
          0 0 0 0 0 0 0 0 0 0 0 0
          0 0 0 0 0 0 0 0 0 0 0 0
          0 0 0 0 0 0 0 0 0 0 0 0
          0 0 0 0 0 0 0 0 0 0 0 0
          0 0 0 0 0 0 0 0 0 0 0 0
          0 0 0 0 0 0 0 0 0 0 0 0
          0 0 0 0 0 0 0 0 0 0 0 0
          0 0 0 0 0 0 0 0 0 0 0 0
          0 0 0 0 0 0 0 0 0 0 0 0
          0 0 0 0 0 0 0 0 0 0 0 0
          0 0 0 0 0 0 0 0 0 0 0 0
          0 0 0 0 0 0 0 0 0 0 0 0
          0 0 0 0 0 0 0 0 0 0 0 0
          0 0 0 0 0 0 0 0 0 0 0 0
          0 0 0 0 0 0 0 0 0 0 0 0
          0 0 0 0 0 0 0 0 0 0 0 0
          0 0 0 0 0 0 0 0 0 0 0 0
          0 0 0 0 0 0 0 0 0 0 0 0
          0 0 0 0 0 0 0 0 0 0 0 0
          0 0 0 0 0 0 0 0 0 0 0 0
          0 0 0 0 0 0 0 0 0 0 0 0
          0 0 0 0 0 0 0 0 0 0 0 0
          0 0 0 0 0 0 0 0 0 0 0 0
          0 0 0 0 0 0 0 0 0 0 0 0
          0 0 0 0 0 0 0 0 0 0 0 0
          0 0 0 0 0 0 0 0 0 0 0 0
        </DataArray>
      </CellData>
      <Points>
        <DataArray type="Float32" Name="Coordinates" NumberOfComponents="3" format="ascii">
          -0.04 -0.04 -0.15 -0.0338462 -0.04 -0.15 -0.04 -0.0338462 -0.15 -0.0338462 -0.0338462 -0.15
          -0.04 -0.04 -0.144 -0.0338462 -0.04 -0.144 -0.04 -0.0338462 -0.144 -0.0338462 -0.0338462 -0.144
          -0.0276923 -0.04 -0.15 -0.0276923 -0.0338462 -0.15 -0.0276923 -0.04 -0.144 -0.0276923 -0.0338462 -0.144
          -0.0215385 -0.04 -0.15 -0.0215385 -0.0338462 -0.15 -0.0215385 -0.04 -0.144 -0.0215385 -0.0338462 -0.144
          -0.0153846 -0.04 -0.15 -0.0153846 -0.0338462 -0.15 -0.0153846 -0.04 -0.144 -0.0153846 -0.0338462 -0.144
          -0.00923077 -0.04 -0.15 -0.00923077 -0.0338462 -0.15 -0.00923077 -0.04 -0.144 -0.00923077 -0.0338462 -0.144
          -0.00307692 -0.04 -0.15 -0.00307692 -0.0338462 -0.15 -0.00307692 -0.04 -0.144 -0.00307692 -0.0338462 -0.144
          -0.04 -0.0276923 -0.15 -0.0338462 -0.0276923 -0.15 -0.04 -0.0276923 -0.144 -0.0338462 -0.0276923 -0.144
          -0.0276923 -0.0276923 -0.15 -0.0276923 -0.0276923 -0.144 -0.0215385 -0.0276923 -0.15 -0.0215385 -0.0276923 -0.144
          -0.0153846 -0.0276923 -0.15 -0.0153846 -0.0276923 -0.144 -0.00923077 -0.0276923 -0.15 -0.00923077 -0.0276923 -0.144
          -0.00307692 -0.0276923 -0.15 -0.00307692 -0.0276923 -0.144 -0.04 -0.0215385 -0.15 -0.0338462 -0.0215385 -0.15
          -0.04 -0.0215385 -0.144 -0.0338462 -0.0215385 -0.144 -0.0276923 -0.0215385 -0.15 -0.0276923 -0.0215385 -0.144
          -0.0215385 -0.0215385 -0.15 -0.0215385 -0.0215385 -0.144 -0.0153846 -0.0215385 -0.15 -0.0153846 -0.0215385 -0.144
          -0.00923077 -0.0215385 -0.15 -0.00923077 -0.0215385 -0.144 -0.00307692 -0.0215385 -0.15 -0.00307692 -0.0215385 -0.144
          -0.04 -0.0153846 -0.15 -0.0338462 -0.0153846 -0.15 -0.04 -0.0153846 -0.144 -0.0338462 -0.0153846 -0.144
          -0.0276923 -0.0153846 -0.15 -0.0276923 -0.0153846 -0.144 -0.0215385 -0.0153846 -0.15 -0.0215385 -0.0153846 -0.144
          -0.0153846 -0.0153846 -0.15 -0.0153846 -0.0153846 -0.144 -0.00923077 -0.0153846 -0.15 -0.00923077 -0.0153846 -0.144
          -0.00307692 -0.0153846 -0.15 -0.00307692 -0.0153846 -0.144 -0.04 -0.00923077 -0.15 -0.0338462 -0.00923077 -0.15
          -0.04 -0.00923077 -0.144 -0.0338462 -0.00923077 -0.144 -0.0276923 -0.00923077 -0.15 -0.0276923 -0.00923077 -0.144
          -0.0215385 -0.00923077 -0.15 -0.0215385 -0.00923077 -0.144 -0.0153846 -0.00923077 -0.15 -0.0153846 -0.00923077 -0.144
          -0.00923077 -0.00923077 -0.15 -0.00923077 -0.00923077 -0.144 -0.00307692 -0.00923077 -0.15 -0.00307692 -0.00923077 -0.144
          -0.04 -0.00307692 -0.15 -0.0338462 -0.00307692 -0.15 -0.04 -0.00307692 -0.144 -0.0338462 -0.00307692 -0.144
          -0.0276923 -0.00307692 -0.15 -0.0276923 -0.00307692 -0.144 -0.0215385 -0.00307692 -0.15 -0.0215385 -0.00307692 -0.144
          -0.0153846 -0.00307692 -0.15 -0.0153846 -0.00307692 -0.144 -0.00923077 -0.00307692 -0.15 -0.00923077 -0.00307692 -0.144
          -0.00307692 -0.00307692 -0.15 -0.00307692 -0.00307692 -0.144 -0.04 0.00307692 -0.15 -0.0338462 0.00307692 -0.15
          -0.04 0.00307692 -0.144 -0.0338462 0.00307692 -0.144 -0.0276923 0.00307692 -0.15 -0.0276923 0.00307692 -0.144
          -0.0215385 0.00307692 -0.15 -0.0215385 0.00307692 -0.144 -0.0153846 0.00307692 -0.15 -0.0153846 0.00307692 -0.144
          -0.00923077 0.00307692 -0.15 -0.00923077 0.00307692 -0.144 -0.00307692 0.00307692 -0.15 -0.00307692 0.00307692 -0.144
          -0.04 0.00923077 -0.15 -0.0338462 0.00923077 -0.15 -0.04 0.00923077 -0.144 -0.0338462 0.00923077 -0.144
          -0.0276923 0.00923077 -0.15 -0.0276923 0.00923077 -0.144 -0.0215385 0.00923077 -0.15 -0.0215385 0.00923077 -0.144
          -0.0153846 0.00923077 -0.15 -0.0153846 0.00923077 -0.144 -0.00923077 0.00923077 -0.15 -0.00923077 0.00923077 -0.144
          -0.00307692 0.00923077 -0.15 -0.00307692 0.00923077 -0.144 -0.04 0.0153846 -0.15 -0.0338462 0.0153846 -0.15
          -0.04 0.0153846 -0.144 -0.0338462 0.0153846 -0.144 -0.0276923 0.0153846 -0.15 -0.0276923 0.0153846 -0.144
          -0.0215385 0.0153846 -0.15 -0.0215385 0.0153846 -0.144 -0.0153846 0.0153846 -0.15 -0.0153846 0.0153846 -0.144
          -0.00923077 0.0153846 -0.15 -0.00923077 0.0153846 -0.144 -0.00307692 0.0153846 -0.15 -0.00307692 0.0153846 -0.144
          -0.04 0.0215385 -0.15 -0.0338462 0.0215385 -0.15 -0.04 0.0215385 -0.144 -0.0338462 0.0215385 -0.144
          -0.0276923 0.0215385 -0.15 -0.0276923 0.0215385 -0.144 -0.0215385 0.0215385 -0.15 -0.0215385 0.0215385 -0.144
          -0.0153846 0.0215385 -0.15 -0.0153846 0.0215385 -0.144 -0.00923077 0.0215385 -0.15 -0.00923077 0.0215385 -0.144
          -0.00307692 0.0215385 -0.15 -0.00307692 0.0215385 -0.144 -0.04 0.0276923 -0.15 -0.0338462 0.0276923 -0.15
          -0.04 0.0276923 -0.144 -0.0338462 0.0276923 -0.144 -0.0276923 0.0276923 -0.15 -0.0276923 0.0276923 -0.144
          -0.0215385 0.0276923 -0.15 -0.0215385 0.0276923 -0.144 -0.0153846 0.0276923 -0.15 -0.0153846 0.0276923 -0.144
          -0.00923077 0.0276923 -0.15 -0.00923077 0.0276923 -0.144 -0.00307692 0.0276923 -0.15 -0.00307692 0.0276923 -0.144
          -0.04 0.0338462 -0.15 -0.0338462 0.0338462 -0.15 -0.04 0.0338462 -0.144 -0.0338462 0.0338462 -0.144
          -0.0276923 0.0338462 -0.15 -0.0276923 0.0338462 -0.144 -0.0215385 0.0338462 -0.15 -0.0215385 0.0338462 -0.144
          -0.0153846 0.0338462 -0.15 -0.0153846 0.0338462 -0.144 -0.00923077 0.0338462 -0.15 -0.00923077 0.0338462 -0.144
          -0.00307692 0.0338462 -0.15 -0.00307692 0.0338462 -0.144 -0.04 0.04 -0.15 -0.0338462 0.04 -0.15
          -0.04 0.04 -0.144 -0.0338462 0.04 -0.144 -0.0276923 0.04 -0.15 -0.0276923 0.04 -0.144
          -0.0215385 0.04 -0.15 -0.0215385 0.04 -0.144 -0.0153846 0.04 -0.15 -0.0153846 0.04 -0.144
          -0.00923077 0.04 -0.15 -0.00923077 0.04 -0.144 -0.00307692 0.04 -0.15 -0.00307692 0.04 -0.144
          -0.04 -0.04 -0.138 -0.0338462 -0.04 -0.138 -0.04 -0.0338462 -0.138 -0.0338462 -0.0338462 -0.138
          -0.0276923 -0.04 -0.138 -0.0276923 -0.0338462 -0.138 -0.0215385 -0.04 -0.138 -0.0215385 -0.0338462 -0.138
          -0.0153846 -0.04 -0.138 -0.0153846 -0.0338462 -0.138 -0.00923077 -0.04 -0.138 -0.00923077 -0.0338462 -0.138
          -0.00307692 -0.04 -0.138 -0.00307692 -0.0338462 -0.138 -0.04 -0.0276923 -0.138 -0.0338462 -0.0276923 -0.138
          -0.0276923 -0.0276923 -0.138 -0.0215385 -0.0276923 -0.138 -0.0153846 -0.0276923 -0.138 -0.00923077 -0.0276923 -0.138
          -0.00307692 -0.0276923 -0.138 -0.04 -0.0215385 -0.138 -0.0338462 -0.0215385 -0.138 -0.0276923 -0.0215385 -0.138
          -0.0215385 -0.0215385 -0.138 -0.0153846 -0.0215385 -0.138 -0.00923077 -0.0215385 -0.138 -0.00307692 -0.0215385 -0.138
          -0.04 -0.0153846 -0.138 -0.0338462 -0.0153846 -0.138 -0.0276923 -0.0153846 -0.138 -0.0215385 -0.0153846 -0.138
          -0.0153846 -0.0153846 -0.138 -0.00923077 -0.0153846 -0.138 -0.00307692 -0.0153846 -0.138 -0.04 -0.00923077 -0.138
          -0.0338462 -0.00923077 -0.138 -0.0276923 -0.00923077 -0.138 -0.0215385 -0.00923077 -0.138 -0.0153846 -0.00923077 -0.138
          -0.00923077 -0.00923077 -0.138 -0.00307692 -0.00923077 -0.138 -0.04 -0.00307692 -0.138 -0.0338462 -0.00307692 -0.138
          -0.0276923 -0.00307692 -0.138 -0.0215385 -0.00307692 -0.138 -0.0153846 -0.00307692 -0.138 -0.00923077 -0.00307692 -0.138
          -0.00307692 -0.00307692 -0.138 -0.04 0.00307692 -0.138 -0.0338462 0.00307692 -0.138 -0.0276923 0.00307692 -0.138
          -0.0215385 0.00307692 -0.138 -0.0153846 0.00307692 -0.138 -0.00923077 0.00307692 -0.138 -0.00307692 0.00307692 -0.138
          -0.04 0.00923077 -0.138 -0.0338462 0.00923077 -0.138 -0.0276923 0.00923077 -0.138 -0.0215385 0.00923077 -0.138
          -0.0153846 0.00923077 -0.138 -0.00923077 0.00923077 -0.138 -0.00307692 0.00923077 -0.138 -0.04 0.0153846 -0.138
          -0.0338462 0.0153846 -0.138 -0.0276923 0.0153846 -0.138 -0.0215385 0.0153846 -0.138 -0.0153846 0.0153846 -0.138
          -0.00923077 0.0153846 -0.138 -0.00307692 0.0153846 -0.138 -0.04 0.0215385 -0.138 -0.0338462 0.0215385 -0.138
          -0.0276923 0.0215385 -0.138 -0.0215385 0.0215385 -0.138 -0.0153846 0.0215385 -0.138 -0.00923077 0.0215385 -0.138
          -0.00307692 0.0215385 -0.138 -0.04 0.0276923 -0.138 -0.0338462 0.0276923 -0.138 -0.0276923 0.0276923 -0.138
          -0.0215385 0.0276923 -0.138 -0.0153846 0.0276923 -0.138 -0.00923077 0.0276923 -0.138 -0.00307692 0.0276923 -0.138
          -0.04 0.0338462 -0.138 -0.0338462 0.0338462 -0.138 -0.0276923 0.0338462 -0.138 -0.0215385 0.0338462 -0.138
          -0.0153846 0.0338462 -0.138 -0.00923077 0.0338462 -0.138 -0.00307692 0.0338462 -0.138 -0.04 0.04 -0.138
          -0.0338462 0.04 -0.138 -0.0276923 0.04 -0.138 -0.0215385 0.04 -0.138 -0.0153846 0.04 -0.138
          -0.00923077 0.04 -0.138 -0.00307692 0.04 -0.138 -0.04 -0.04 -0.132 -0.0338462 -0.04 -0.132
          -0.04 -0.0338462 -0.132 -0.0338462 -0.0338462 -0.132 -0.0276923 -0.04 -0.132 -0.0276923 -0.0338462 -0.132
          -0.0215385 -0.04 -0.132 -0.0215385 -0.0338462 -0.132 -0.0153846 -0.04 -0.132 -0.0153846 -0.0338462 -0.132
          -0.00923077 -0.04 -0.132 -0.00923077 -0.0338462 -0.132 -0.00307692 -0.04 -0.132 -0.00307692 -0.0338462 -0.132
          -0.04 -0.0276923 -0.132 -0.0338462 -0.0276923 -0.132 -0.0276923 -0.0276923 -0.132 -0.0215385 -0.0276923 -0.132