<?xml version="1.0"?>
<VTKFile type="UnstructuredGrid" version="0.1" byte_order="LittleEndian">
  <UnstructuredGrid>
    <Piece NumberOfCells="1183" NumberOfPoints="1568">
      <CellData Scalars="p (Pa)">
        <DataArray type="Float32" Name="p (Pa)" NumberOfComponents="1" format="ascii">
          -863448 -893662 -909553 -907476 -881738 -856450 -842332 -894528 -926738 -936955 -923969 -890706
          -861049 -844935 -961900 -1.00393e+06 -1.0032e+06 -965878 -910262 -868950 -848154 -1.06415e+06 -1.13381e+06 -1.1182e+06
          -1.03506e+06 -934483 -874370 -847017 -1.14556e+06 -1.15732e+06 -1.18245e+06 -1.05374e+06 -933769 -865051 -834228 -1.19379e+06
          -1.17709e+06 -1.12767e+06 -1.01639e+06 -903189 -836364 -806232 -1.1586e+06 -1.07741e+06 -982387 -909230 -837633 -788306
          -764412 -1.13755e+06 -941503 -854506 -803700 -761956 -731564 -715935 -857686 -796290 -751968 -721424
          -697285 -679586 -670225 -718182 -699247 -679136 -662248 -648372 -638116 -632626 -644591 -639732
          -631098 -622116 -614122 -608060 -604778 -605922 -605817 -602266 -597390 -592557 -588735 -586631
          -589039 -590416 -588784 -585626 -582163 -579313 -577719 -907445 -949262 -987196 -1.01015e+06 -961871
          -920313 -899485 -937930 -978601 -1.0086e+06 -1.01339e+06 -963767 -921667 -900067 -1.00407e+06 -1.04668e+06 -1.07023e+06
          -1.04896e+06 -975279 -924084 -899096 -1.1042e+06 -1.15643e+06 -1.17057e+06 -1.15162e+06 -993786 -921241 -890626 -1.17605e+06
          -1.1579e+06 -1.16879e+06 -1.07213e+06 -957932 -894675 -865556 -1.164e+06 -1.15762e+06 -1.08201e+06 -978716 -897770 -847990
          -824031 -1.08838e+06 -1.01808e+06 -940459 -876724 -825656 -790966 -773507 -923053 -875153 -825903 -787075
          -755920 -733752 -722238 -782956 -763633 -738274 -715846 -697267 -683714 -676541 -693197 -687147
          -675277 -662953 -652096 -643959 -639590 -638334 -637751 -632699 -626163 -619864 -614956 -612274
          -606880 -608423 -606589 -603100 -599298 -596176 -594432 -592513 -594774 -594210 -592016 -589309
          -586978 -585650 -945699 -1.00268e+06 -1.07689e+06 -1.16165e+06 -1.05503e+06 -984897 -955007 -976386 -1.02796e+06 -1.08523e+06
          -1.13397e+06 -1.04464e+06 -983495 -954717 -1.04478e+06 -1.08243e+06 -1.11022e+06 -1.10101e+06 -1.03293e+06 -980466 -951593 -1.15457e+06
          -1.16629e+06 -1.15886e+06 -1.11016e+06 -1.02513e+06 -970989 -938609 -1.17625e+06 -1.16107e+06 -1.14001e+06 -1.05278e+06 -979478 -932053
          -902292 -1.08621e+06 -1.09826e+06 -1.02682e+06 -956297 -902371 -865866 -844932 -946676 -940820 -899862 -857488
          -822382 -797298 -783577 -828266 -822166 -799203 -774273 -752459 -736322 -727600 -737435 -735408
          -723522 -709266 -696117 -686117 -680692 -673441 -674227 -668766 -660977 -653263 -647198 -643869
          -630930 -633139 -631173 -627145 -622698 -619032 -616979 -605153 -607973 -607766 -605765 -603136
          -600823 -599491 -593006 -596037 -596555 -595431 -593609 -591901 -590892 -970647 -1.03659e+06 -1.11398e+06
          -1.17175e+06 -1.09557e+06 -1.03172e+06 -1.00047e+06 -999706 -1.06653e+06 -1.14705e+06 -1.16828e+06 -1.1048e+06 -1.03731e+06 -1.00324e+06 -1.05756e+06
          -1.11264e+06 -1.15725e+06 -1.15454e+06 -1.09261e+06 -1.04235e+06 -1.00504e+06 -1.14097e+06 -1.17256e+06 -1.16417e+06 -1.12695e+06 -1.08092e+06 -1.04829e+06
          -997667 -1.16802e+06 -1.15837e+06 -1.12824e+06 -1.06858e+06 -1.03238e+06 -1.00169e+06 -951593 -1.02998e+06 -1.04267e+06 -1.00006e+06 -955581
          -922391 -895097 -870369 -889260 -896399 -875838 -849403 -825827 -806866 -794259 -786560 -791219
          -781211 -766035 -751095 -739077 -731989 -712507 -716537 -711994 -703578 -694626 -687297 -683120
          -660084 -663941 -662445 -658076 -652933 -648567 -646075 -624473 -628222 -628408 -626401 -623557
          -620987 -619487 -602407 -606060 -607115 -606394 -604835 -603276 -602332 -591858 -595452 -596872
          -596712 -595727 -594620 -593925 -982564 -1.05337e+06 -1.13034e+06 -1.16167e+06 -1.11354e+06 -1.06041e+06 -1.03017e+06 -1.01186e+06
          -1.09256e+06 -1.19003e+06 -1.18694e+06 -1.14036e+06 -1.07567e+06 -1.03732e+06 -1.06486e+06 -1.1404e+06 -1.1675e+06 -1.20412e+06 -1.15008e+06 -1.10344e+06
          -1.04852e+06 -1.12967e+06 -1.18911e+06 -1.20446e+06 -1.18389e+06 -1.16796e+06 -1.16214e+06 -1.05793e+06 -1.14743e+06 -1.16158e+06 -1.15903e+06 -1.13023e+06
          -1.14891e+06 -1.14471e+06 -1.00629e+06 -1.01391e+06 -1.02713e+06 -1.00179e+06 -974441 -956576 -932014 -892426 -870196 -878286
          -866632 -849183 -832134 -815409 -801378 -768413 -775338 -770900 -761141 -750189 -740319 -733866
          -698986 -704950 -703941 -698961 -692658 -687001 -683580 -651343 -656477 -657152 -654963 -651581
          -648403 -646496 -619309 -623837 -625351 -624741 -623078 -621337 -620261 -599461 -603605 -605524
          -605754 -605035 -604083 -603455 -589949 -593908 -595989 -596584 -596280 -595677 -595246 -981120
          -1.04638e+06 -1.10831e+06 -1.13586e+06 -1.116e+06 -1.06912e+06 -1.03925e+06 -1.0114e+06 -1.08409e+06 -1.16173e+06 -1.18601e+06 -1.1569e+06 -1.08676e+06
          -1.04561e+06 -1.07172e+06 -1.1463e+06 -1.21052e+06 -1.22329e+06 -1.17639e+06 -1.10042e+06 -1.04795e+06 -1.15405e+06 -1.20459e+06 -1.16973e+06 -1.22627e+06
          -1.18027e+06 -1.10734e+06 -1.03554e+06 -1.18408e+06 -1.16124e+06 -1.17828e+06 -1.17048e+06 -1.15835e+06 -1.05884e+06 -980188 -1.05819e+06 -1.03644e+06
          -1.01496e+06 -991190 -961562 -915913 -882761 -874658 -874410 -863737 -848247 -829991 -810337 -797025
          -761396 -767283 -764321 -756466 -746584 -737083 -731075 -691211 -697543 -697935 -694547 -689495
          -684640 -681655 -645348 -650959 -652692 -651691 -649318 -646846 -645305 -615177 -620070 -622328
          -622569 -621662 -620469 -619679 -596641 -601051 -603504 -604366 -604226 -603705 -603305 -587783
          -591956 -594473 -595592 -595781 -595550 -595318 -969931 -1.02857e+06 -1.07981e+06 -1.11056e+06 -1.11023e+06 -1.05949e+06
          -1.02809e+06 -1.00058e+06 -1.06463e+06 -1.12633e+06 -1.17015e+06 -1.17453e+06 -1.08186e+06 -1.0325e+06 -1.0671e+06 -1.13315e+06 -1.20028e+06 -1.22331e+06
          -1.18635e+06 -1.08039e+06 -1.02458e+06 -1.17033e+06 -1.21195e+06 -1.24292e+06 -1.23226e+06 -1.13972e+06 -1.04606e+06 -994645 -1.16499e+06 -1.15904e+06
          -1.16429e+06 -1.17003e+06 -1.07147e+06 -983345 -937846 -1.12462e+06 -1.04389e+06 -1.00736e+06 -974633 -926006 -883184 -859023
          -877700 -869547 -855459 -837466 -815767 -796335 -784897 -755106 -760255 -757157 -749258 -739157
          -729938 -724442 -685068 -691552 -692409 -689537 -684905 -680431 -677718 -640632 -646452 -648655
          -648192 -646299 -644193 -642860 -611735 -616797 -619430 -620120 -619629 -618751 -618132 -594069
          -598608 -601358 -602588 -602798 -602544 -602288 -585642 -589925 -592698 -594141 -594643 -594653
          -594551 -952377 -1.00525e+06 -1.04539e+06 -1.06463e+06 -1.05414e+06 -1.01956e+06 -996969 -981043 -1.04087e+06 -1.08818e+06 -1.11286e+06
          -1.08872e+06 -1.02895e+06 -996372 -1.04387e+06 -1.11516e+06 -1.16897e+06 -1.16618e+06 -1.10823e+06 -1.02384e+06 -983931 -1.14292e+06 -1.20763e+06
          -1.18197e+06 -1.17493e+06 -1.07098e+06 -989080 -951375 -1.15838e+06 -1.15749e+06 -1.14626e+06 -1.0815e+06 -990691 -928676 -898826
          -1.00588e+06 -1.00623e+06 -973673 -931839 -886164 -851672 -833644 -843331 -850403 -838746 -819234 -797580
          -779971 -770259 -742429 -750501 -748215 -740076 -729902 -721085 -716045 -678641 -685766 -686942
          -684139 -679573 -675262 -672705 -636585 -642586 -644980 -644672 -642920 -640951 -639710 -608867
          -614005 -616788 -617650 -617324 -616581 -616039 -591846 -596433 -599314 -600711 -601086 -600964
          -600780 -583717 -588039 -590933 -592538 -593201 -593340 -593308 -932760 -980384 -1.00839e+06 -1.01373e+06
          -998889 -975405 -960163 -958100 -1.01519e+06 -1.04308e+06 -1.0408e+06 -1.01177e+06 -976525 -956290 -1.00971e+06 -1.09209e+06
          -1.11449e+06 -1.0839e+06 -1.01962e+06 -967908 -942234 -1.07259e+06 -1.1746e+06 -1.16432e+06 -1.08945e+06 -996011 -938657 -912231
          -1.06591e+06 -1.15682e+06 -1.10086e+06 -1.00757e+06 -934025 -888204 -866490 -938241 -976858 -944338 -896722 -854908
          -825984 -811440 -818261 -834794 -824219 -802999 -781477 -765137 -756485 -732803 -742949 -740764
          -731828 -721255 -712549 -707736 -674019 -681557 -682605 -679398 -674540 -670144 -667604 -633732
          -639795 -642093 -641609 -639720 -637692 -636442 -606766 -611902 -614650 -615462 -615100 -614348
          -613809 -590118 -594696 -597581 -598989 -599384 -599285 -599117 -582153 -586469 -589384 -591024
          -591730 -591906 -591897 -915791 -959255 -976996 -973160 -956875 -938582 -927333 -940527 -995895
          -1.00574e+06 -989196 -961694 -936387 -922141 -988791 -1.07821e+06 -1.06122e+06 -1.01252e+06 -962478 -926333 -908114
          -1.03487e+06 -1.15683e+06 -1.10599e+06 -1.01411e+06 -944078 -901394 -881397 -1.03149e+06 -1.15709e+06 -1.06405e+06 -963558 -898100
          -859674 -841836 -924671 -970043 -929296 -875672 -833988 -807126 -794101 -815293 -832417 -817945
          -792926 -769933 -753593 -745262 -732065 -741911 -737650 -726569 -714749 -705592 -700702 -673284
          -680555 -680575 -676253 -670622 -665838 -663162 -632758 -638662 -640479 -639453 -637148 -634879
          -633529 -605674 -610721 -613252 -613814 -613251 -612372 -611777 -589005 -593531 -596317 -597615
          -597918 -597760 -597566 -581048 -585327 -588188 -589773 -590433 -590580 -590558 -902914 -944017
          -954111 -944757 -927674 -911584 -902220 -931245 -992117 -983855 -957703 -930112 -908440 -896774
          -992731 -1.13703e+06 -1.0467e+06 -977641 -929472 -898600 -883512 -1.04536e+06 -1.16564e+06 -1.08965e+06 -982445 -915161
          -877027 -859636 -1.0637e+06 -1.15825e+06 -1.07432e+06 -949858 -878991 -841328 -824663 -974194 -993988 -937047
          -869324 -822480 -794730 -781871 -844322 -849440 -823074 -790016 -763318 -745745 -737146 -744240
          -750033 -740194 -724966 -710862 -700705 -695482 -677641 -683615 -681336 -675044 -668155 -662719
          -659786 -633950 -639407 -640300 -638375 -635424 -632780 -631267 -605640 -610510 -612659 -612815
          -611933 -610853 -610165 -588515 -592956 -595572 -596679 -596822 -596558 -596312 -580411 -584635
          -587399 -588873 -589438 -589518 -589463 -890492 -926424 -935180 -925354 -908847 -894016 -885585
          -915462 -962155 -959645 -936076 -910396 -890682 -880236 -971263 -1.05127e+06 -1.01225e+06 -954002 -909673
          -881426 -867765 -1.05713e+06 -1.15645e+06 -1.08432e+06 -967390 -899061 -862270 -845898 -1.15511e+06 -1.15612e+06 -1.14923e+06
          -954428 -869874 -830466 -813915 -1.15179e+06 -1.04991e+06 -962823 -871490 -817010 -787381 -774198 -933387
          -889843 -837182 -791784 -760292 -741078 -732013 -773565 -767506 -747129 -725992 -709104 -697774
          -692144 -686930 -690075 -684156 -675304 -666964 -660812 -657597 -636816 -641524 -641157 -638161
          -634501 -631461 -629776 -606358 -610993 -612679 -612381 -611159 -609870 -609086 -588490 -592838
          -595263 -596163 -596138 -595761 -595460 -580150 -584321 -586980 -588335 -588796 -588804 -588713
          -882415 -914953 -923859 -915008 -899406 -885331 -877345 -903155 -941096 -942987 -923731 -900368
          -881923 -872087 -947168 -997906 -980635 -937530 -898939 -872869 -860029 -1.01499e+06 -1.07578e+06 -1.02589e+06
          -945782 -888399 -854606 -839117 -1.09906e+06 -1.10842e+06 -1.0391e+06 -928319 -860661 -824434 -808560 -1.15982e+06
          -1.0521e+06 -946725 -864278 -812615 -783511 -770418 -1.14792e+06 -937764 -845729 -792254 -758707 -738812
          -729529 -816263 -786706 -753265 -727204 -708472 -696427 -690548 -697219 -696432 -686824 -675919
          -666570 -659952 -656557 -639632 -643548 -642100 -638305 -634162 -630864 -629070 -607135 -611570
          -612905 -612290 -610844 -609420 -608574 -588641 -592922 -595213 -595976 -595841 -595392 -595057
          -580113 -584249 -586839 -588116 -588510 -588473 -588358
        </DataArray>
        <DataArray type="Float32" Name="saturation" NumberOfComponents="1" format="ascii">
          0.723797 0.722345 0.721601 0.721697 0.722912 0.72414 0.724841 0.722304 0.72081 0.720347 0.720937 0.722485
          0.723914 0.724711 0.719237 0.717429 0.71746 0.719062 0.721568 0.723529 0.724551 0.714966 0.712286 0.712872
          0.716138 0.720459 0.723266 0.724607 0.71185 0.711418 0.71051 0.715382 0.720491 0.723718 0.725249 0.710107
          0.710702 0.712515 0.716908 0.721897 0.725141 0.726687 0.711371 0.714443 0.718346 0.721616 0.725077 0.727634
          0.728929 0.712146 0.720143 0.724236 0.72682 0.729064 0.730774 0.73168 0.724079 0.72721 0.729619 0.73136
          0.732786 0.733863 0.734443 0.731549 0.732669 0.733891 0.734943 0.735828 0.736493 0.736853 0.736072 0.736387
          0.736954 0.737551 0.738089 0.738502 0.738727 0.738648 0.738655 0.7389 0.739237 0.739575 0.739843 0.739992
          0.739822 0.739725 0.73984 0.740063 0.740309 0.740512 0.740626 0.721699 0.719796 0.71814 0.717168 0.719238
          0.721104 0.722071 0.720303 0.718509 0.717233 0.717033 0.719155 0.721042 0.722044 0.717423 0.715666 0.714725
          0.715574 0.718653 0.720931 0.722089 0.713404 0.71145 0.710937 0.711626 0.717859 0.721062 0.722489 0.710739
          0.711397 0.711001 0.714651 0.719412 0.722297 0.723694 0.711175 0.711407 0.714263 0.718504 0.722152 0.724559
          0.725767 0.714014 0.716838 0.720189 0.723153 0.725684 0.727492 0.728431 0.720979 0.723229 0.725671 0.7277
          0.729398 0.730649 0.731312 0.72792 0.728971 0.730391 0.731685 0.732788 0.733609 0.734051 0.733033 0.7334
          0.734129 0.734899 0.735589 0.736113 0.736397 0.736479 0.736517 0.736848 0.737281 0.737702 0.738033 0.738215
          0.738583 0.738477 0.738603 0.738842 0.739105 0.739322 0.739443 0.739578 0.73942 0.739459 0.739613 0.739803
          0.739967 0.740061 0.719955 0.717482 0.714463 0.71126 0.71533 0.718238 0.719541 0.718605 0.716429 0.714137
          0.712279 0.715749 0.718298 0.719554 0.715743 0.714246 0.713174 0.713526 0.716225 0.718429 0.719692 0.711518
          0.711091 0.711362 0.713176 0.716546 0.718839 0.720273 0.710732 0.711281 0.712055 0.71542 0.718472 0.720569
          0.721939 0.714099 0.713632 0.716476 0.719484 0.721936 0.723679 0.724711 0.719911 0.720173 0.722053 0.724089
          0.725851 0.727156 0.727887 0.725551 0.725863 0.727056 0.72839 0.729591 0.730502 0.731002 0.730438 0.730554
          0.731238 0.732073 0.732857 0.733463 0.733795 0.734243 0.734194 0.734534 0.735024 0.735514 0.735903 0.736119
          0.736965 0.736819 0.736949 0.737216 0.737512 0.737758 0.737896 0.738701 0.738508 0.738522 0.738659 0.73884
          0.738999 0.739092 0.739543 0.739332 0.739296 0.739374 0.739501 0.739621 0.739691 0.718854 0.716076 0.713031
          0.710894 0.713736 0.716275 0.717575 0.717607 0.714872 0.711794 0.71102 0.713381 0.716046 0.717458 0.715229
          0.713082 0.71142 0.71152 0.71385 0.715841 0.717383 0.712019 0.710865 0.711169 0.712542 0.714305 0.715601
          0.717694 0.711029 0.71138 0.712494 0.714791 0.716248 0.717524 0.719692 0.716346 0.715829 0.717592 0.719515
          0.721009 0.722277 0.72346 0.722554 0.722216 0.723195 0.724488 0.725675 0.726654 0.727317 0.727727 0.727479
          0.728014 0.728839 0.729667 0.730345 0.73075 0.731881 0.731645 0.731912 0.73241 0.732947 0.733391 0.733646
          0.73508 0.734837 0.734931 0.735207 0.735535 0.735815 0.735976 0.737393 0.737144 0.737132 0.737265 0.737455
          0.737627 0.737727 0.73889 0.738639 0.738566 0.738616 0.738723 0.73883 0.738895 0.739624 0.739372 0.739273
          0.739285 0.739353 0.73943 0.739479 0.718339 0.715397 0.712415 0.711259 0.713048 0.715115 0.716339 0.717097
          0.713852 0.71024 0.71035 0.712042 0.714511 0.716046 0.714938 0.712041 0.711048 0.709743 0.711683 0.713434
          0.715592 0.71244 0.710273 0.709731 0.710459 0.711031 0.711242 0.715214 0.711781 0.711263 0.711356 0.712419
          0.711726 0.711881 0.71733 0.717011 0.716463 0.71752 0.718689 0.719471 0.720571 0.722404 0.723468 0.723078
          0.723641 0.724499 0.725355 0.72621 0.726941 0.728709 0.728332 0.728573 0.729109 0.729718 0.730274 0.730642
          0.732684 0.732328 0.732388 0.732686 0.733065 0.733409 0.733618 0.735637 0.735309 0.735266 0.735406 0.735622
          0.735826 0.735949 0.737739 0.737436 0.737335 0.737376 0.737487 0.737603 0.737675 0.739094 0.738807 0.738676
          0.73866 0.738709 0.738775 0.738818 0.739758 0.73948 0.739335 0.739294 0.739315 0.739357 0.739387 0.718401
          0.715678 0.713247 0.712209 0.712955 0.714769 0.715967 0.717116 0.714181 0.711257 0.710383 0.711433 0.714077
          0.71571 0.714667 0.711822 0.709518 0.709075 0.710727 0.713549 0.715615 0.711537 0.709726 0.710967 0.708972
          0.710588 0.713284 0.716119 0.710452 0.711275 0.710659 0.71094 0.71138 0.715178 0.718441 0.715204 0.716082
          0.716967 0.717969 0.719252 0.721307 0.722863 0.723252 0.723264 0.723783 0.724546 0.725463 0.726473 0.727171
          0.729095 0.728771 0.728934 0.729368 0.72992 0.730458 0.730802 0.733153 0.732771 0.732747 0.732951 0.733257
          0.733553 0.733736 0.736023 0.735662 0.735551 0.735615 0.735767 0.735926 0.736026 0.738018 0.737688 0.737537
          0.737521 0.737581 0.737661 0.737714 0.739289 0.738984 0.738814 0.738755 0.738765 0.738801 0.738828 0.73991
          0.739617 0.739441 0.739363 0.739349 0.739366 0.739382 0.718885 0.716404 0.714349 0.713161 0.713174 0.715152
          0.716424 0.71757 0.714947 0.712565 0.710952 0.710794 0.714268 0.716243 0.714849 0.71231 0.709878 0.709075
          0.710371 0.714326 0.716569 0.710946 0.709468 0.708403 0.708766 0.712066 0.715691 0.717822 0.711139 0.711355
          0.711164 0.710956 0.714676 0.718305 0.720307 0.712629 0.715779 0.717285 0.718681 0.720844 0.722843 0.724014
          0.723106 0.7235 0.724189 0.725085 0.726192 0.727207 0.727816 0.729444 0.729158 0.72933 0.72977 0.73034
          0.730867 0.731185 0.733527 0.733132 0.73308 0.733254 0.733537 0.733811 0.733978 0.736329 0.735952 0.73581
          0.735839 0.735961 0.736098 0.736184 0.738251 0.737908 0.737731 0.737685 0.737718 0.737777 0.737818 0.739469
          0.739153 0.738962 0.738878 0.738863 0.738881 0.738898 0.740062 0.739759 0.739565 0.739464 0.739429 0.739428
          0.739435 0.719657 0.717374 0.715719 0.714947 0.715366 0.716776 0.717723 0.718404 0.715901 0.714022 0.713074
          0.714001 0.716389 0.717749 0.71578 0.712987 0.710995 0.711095 0.71325 0.716599 0.71828 0.711947 0.709619
          0.710527 0.710779 0.714696 0.718059 0.719702 0.711379 0.711412 0.711824 0.714282 0.71799 0.720722 0.722102
          0.717347 0.717333 0.718723 0.720578 0.722701 0.724376 0.725278 0.724791 0.724439 0.725021 0.726013 0.727141
          0.728081 0.728608 0.730155 0.729701 0.729829 0.730288 0.730869 0.731379 0.731674 0.733921 0.733484 0.733412
          0.733583 0.733864 0.73413 0.734289 0.736593 0.736202 0.736047 0.736067 0.73618 0.736308 0.736389 0.738447
          0.738097 0.737909 0.737851 0.737873 0.737923 0.73796 0.739624 0.739304 0.739104 0.739007 0.738981 0.73899
          0.739002 0.740198 0.739892 0.739689 0.739576 0.73953 0.73952 0.739522 0.720537 0.718432 0.717242 0.717018
          0.717642 0.718648 0.719313 0.719404 0.716958 0.715812 0.715904 0.7171 0.718599 0.719484 0.717186 0.71387
          0.713012 0.714189 0.716774 0.718974 0.72011 0.714632 0.710792 0.711163 0.713973 0.717764 0.72027 0.721477
          0.714896 0.711436 0.713532 0.717276 0.720479 0.722604 0.723648 0.720289 0.718585 0.720016 0.722201 0.724216
          0.725667 0.726416 0.726063 0.72522 0.725757 0.726856 0.728 0.728889 0.729367 0.730703 0.730125 0.730249
          0.730759 0.73137 0.731879 0.732163 0.734207 0.733742 0.733677 0.733874 0.734175 0.734448 0.734607 0.73678
          0.736383 0.736234 0.736265 0.736388 0.736521 0.736602 0.73859 0.73824 0.738054 0.737999 0.738023 0.738074
          0.73811 0.739746 0.739425 0.739224 0.739126 0.739099 0.739106 0.739118 0.740309 0.740003 0.739797 0.739682
          0.739633 0.73962 0.739621 0.721312 0.719353 0.718579 0.718745 0.719458 0.720274 0.720783 0.720186 0.717769
          0.717353 0.718054 0.719246 0.720373 0.72102 0.718072 0.714411 0.715083 0.717069 0.719211 0.720829 0.721668
          0.716146 0.711436 0.713336 0.717003 0.720027 0.721981 0.722929 0.716284 0.711426 0.71497 0.719164 0.722136
          0.723981 0.724866 0.720905 0.718881 0.720694 0.723203 0.725261 0.72664 0.727325 0.726216 0.72534 0.726079
          0.727388 0.728626 0.729528 0.729995 0.730745 0.730184 0.730426 0.731062 0.73175 0.73229 0.732582 0.734253
          0.733803 0.733802 0.734069 0.734418 0.734718 0.734886 0.736844 0.736457 0.736339 0.736406 0.736556 0.736705
          0.736794 0.738665 0.73832 0.738148 0.73811 0.738148 0.738208 0.738248 0.739824 0.739507 0.739312 0.739222
          0.739201 0.739212 0.739225 0.740388 0.740084 0.739882 0.73977 0.739724 0.739713 0.739715 0.72191 0.72003
          0.71958 0.719997 0.720768 0.721507 0.721943 0.720605 0.71793 0.718283 0.719422 0.720657 0.721653 0.722198
          0.717903 0.712166 0.715665 0.718551 0.720686 0.722112 0.722827 0.715719 0.711115 0.713965 0.718344 0.721341
          0.723138 0.723983 0.714984 0.711384 0.714564 0.719769 0.723044 0.724891 0.725735 0.7187 0.71785 0.720343
          0.723511 0.725846 0.727292 0.727979 0.724742 0.724487 0.725816 0.727543 0.728989 0.729968 0.730455 0.730053
          0.729727 0.730282 0.731154 0.731978 0.732581 0.732895 0.733983 0.733616 0.733755 0.734143 0.734572 0.734914
          0.735099 0.736766 0.736409 0.73635 0.736476 0.736669 0.736843 0.736943 0.738668 0.738335 0.738189 0.738178
          0.738238 0.738311 0.738358 0.739859 0.739547 0.739364 0.739287 0.739277 0.739295 0.739312 0.740434 0.740133
          0.739937 0.739833 0.739794 0.739788 0.739792 0.722495 0.720825 0.720427 0.720873 0.721634 0.722328 0.722728
          0.721327 0.719226 0.719336 0.720387 0.721562 0.722486 0.722984 0.718827 0.715481 0.71708 0.719585 0.721595
          0.722927 0.723586 0.715246 0.71145 0.714172 0.718996 0.722091 0.723854 0.724663 0.711499 0.711462 0.711714
          0.719566 0.723484 0.725439 0.726288 0.71162 0.715536 0.719196 0.723406 0.726128 0.727683 0.728394 0.720508
          0.722526 0.7251 0.727448 0.729156 0.730231 0.730748 0.728428 0.728759 0.72989 0.731095 0.732082 0.732757
          0.733096 0.733413 0.733222 0.733582 0.734127 0.734647 0.735034 0.735238 0.736578 0.736271 0.736295 0.73649
          0.73673 0.73693 0.737041 0.738618 0.738302 0.738187 0.738207 0.73829 0.738378 0.738432 0.73986 0.739555
          0.739386 0.739323 0.739325 0.739351 0.739372 0.740452 0.740155 0.739967 0.739871 0.739839 0.739838 0.739845
          0.72288 0.721351 0.720942 0.721348 0.722075 0.722741 0.723123 0.721899 0.720161 0.720076 0.720948 0.72203
          0.722903 0.723377 0.719889 0.717684 0.718422 0.720321 0.722097 0.723339 0.723964 0.716966 0.714507 0.716514
          0.719951 0.722594 0.724231 0.725002 0.713601 0.713243 0.715974 0.720738 0.723933 0.725746 0.726566 0.711327
          0.715448 0.719909 0.723756 0.726355 0.727891 0.7286 0.711763 0.720311 0.724671 0.727423 0.729244 0.73036
          0.730891 0.726166 0.727719 0.729546 0.731025 0.73212 0.732838 0.733193 0.73279 0.732838 0.733419 0.734089
          0.734672 0.735089 0.735304 0.736394 0.736139 0.736233 0.736481 0.736752 0.736969 0.737088 0.738565 0.738262
          0.738172 0.738214 0.738312 0.738409 0.738467 0.73985 0.739549 0.739389 0.739336 0.739345 0.739376 0.7394
          0.740455 0.74016 0.739977 0.739887 0.739859 0.739862 0.73987
        </DataArray>
        <DataArray type="Float32" Name="process rank" NumberOfComponents="1" format="ascii">
          3 3 3 3 3 3 3 3 3 3 3 3
          3 3 3 3 3 3 3 3 3 3 3 3
          3 3 3 3 3 3 3 3 3 3 3 3
          3 3 3 3 3 3 3 3 3 3 3 3
          3 3 3 3 3 3 3 3 3 3 3 3
          3 3 3 3 3 3 3 3 3 3 3 3
          3 3 3 3 3 3 3 3 3 3 3 3
          3 3 3 3 3 3 3 3 3 3 3 3
          3 3 3 3 3 3 3 3 3 3 3 3
          3 3 3 3 3 3 3 3 3 3 3 3
          3 3 3 3 3 3 3 3 3 3 3 3
          3 3 3 3 3 3 3 3 3 3 3 3
          3 3 3 3 3 3 3 3 3 3 3 3
          3 3 3 3 3 3 3 3 3 3 3 3
          3 3 3 3 3 3 3 3 3 3 3 3
          3 3 3 3 3 3 3 3 3 3 3 3
          3 3 3 3 3 3 3 3 3 3 3 3
          3 3 3 3 3 3 3 3 3 3 3 3
          3 3 3 3 3 3 3 3 3 3 3 3
          3 3 3 3 3 3 3 3 3 3 3 3
          3 3 3 3 3 3 3 3 3 3 3 3
          3 3 3 3 3 3 3 3 3 3 3 3
          3 3 3 3 3 3 3 3 3 3 3 3
          3 3 3 3 3 3 3 3 3 3 3 3
          3 3 3 3 3 3 3 3 3 3 3 3
          3 3 3 3 3 3 3 3 3 3 3 3
          3 3 3 3 3 3 3 3 3 3 3 3
          3 3 3 3 3 3 3 3 3 3 3 3
          3 3 3 3 3 3 3 3 3 3 3 3
          3 3 3 3 3 3 3 3 3 3 3 3
          3 3 3 3 3 3 3 3 3 3 3 3
          3 3 3 3 3 3 3 3 3 3 3 3
          3 3 3 3 3 3 3 3 3 3 3 3
          3 3 3 3 3 3 3 3 3 3 3 3
          3 3 3 3 3 3 3 3 3 3 3 3
          3 3 3 3 3 3 3 3 3 3 3 3
          3 3 3 3 3 3 3 3 3 3 3 3
          3 3 3 3 3 3 3 3 3 3 3 3
          3 3 3 3 3 3 3 3 3 3 3 3
          3 3 3 3 3 3 3 3 3 3 3 3
          3 3 3 3 3 3 3 3 3 3 3 3
          3 3 3 3 3 3 3 3 3 3 3 3
          3 3 3 3 3 3 3 3 3 3 3 3
          3 3 3 3 3 3 3 3 3 3 3 3
          3 3 3 3 3 3 3 3 3 3 3 3
          3 3 3 3 3 3 3 3 3 3 3 3
          3 3 3 3 3 3 3 3 3 3 3 3
          3 3 3 3 3 3 3 3 3 3 3 3
          3 3 3 3 3 3 3 3 3 3 3 3
          3 3 3 3 3 3 3 3 3 3 3 3
          3 3 3 3 3 3 3 3 3 3 3 3
          3 3 3 3 3 3 3 3 3 3 3 3
          3 3 3 3 3 3 3 3 3 3 3 3
          3 3 3 3 3 3 3 3 3 3 3 3
          3 3 3 3 3 3 3 3 3 3 3 3
          3 3 3 3 3 3 3 3 3 3 3 3
          3 3 3 3 3 3 3 3 3 3 3 3
          3 3 3 3 3 3 3 3 3 3 3 3
          3 3 3 3 3 3 3 3 3 3 3 3
          3 3 3 3 3 3 3 3 3 3 3 3
          3 3 3 3 3 3 3 3 3 3 3 3
          3 3 3 3 3 3 3 3 3 3 3 3
          3 3 3 3 3 3 3 3 3 3 3 3
          3 3 3 3 3 3 3 3 3 3 3 3
          3 3 3 3 3 3 3 3 3 3 3 3
          3 3 3 3 3 3 3 3 3 3 3 3
          3 3 3 3 3 3 3 3 3 3 3 3
          3 3 3 3 3 3 3 3 3 3 3 3
          3 3 3 3 3 3 3 3 3 3 3 3
          3 3 3 3 3 3 3 3 3 3 3 3
          3 3 3 3 3 3 3 3 3 3 3 3
          3 3 3 3 3 3 3 3 3 3 3 3
          3 3 3 3 3 3 3 3 3 3 3 3
          3 3 3 3 3 3 3 3 3 3 3 3
          3 3 3 3 3 3 3 3 3 3 3 3
          3 3 3 3 3 3 3 3 3 3 3 3
          3 3 3 3 3 3 3 3 3 3 3 3
          3 3 3 3 3 3 3 3 3 3 3 3
          3 3 3 3 3 3 3 3 3 3 3 3
          3 3 3 3 3 3 3 3 3 3 3 3
          3 3 3 3 3 3 3 3 3 3 3 3
          3 3 3 3 3 3 3 3 3 3 3 3
          3 3 3 3 3 3 3 3 3 3 3 3
          3 3 3 3 3 3 3 3 3 3 3 3
          3 3 3 3 3 3 3 3 3 3 3 3
          3 3 3 3 3 3 3 3 3 3 3 3
          3 3 3 3 3 3 3 3 3 3 3 3
          3 3 3 3 3 3 3 3 3 3 3 3
          3 3 3 3 3 3 3 3 3 3 3 3
          3 3 3 3 3 3 3 3 3 3 3 3
          3 3 3 3 3 3 3 3 3 3 3 3
          3 3 3 3 3 3 3 3 3 3 3 3
          3 3 3 3 3 3 3 3 3 3 3 3
          3 3 3 3 3 3 3 3 3 3 3 3
          3 3 3 3 3 3 3 3 3 3 3 3
          3 3 3 3 3 3 3 3 3 3 3 3
          3 3 3 3 3 3 3 3 3 3 3 3
          3 3 3 3 3 3 3 3 3 3 3 3
          3 3 3 3 3 3 3
        </DataArray>
      </CellData>
      <Points>
        <DataArray type="Float32" Name="Coordinates" NumberOfComponents="3" format="ascii">
          -0.00307692 -0.04 -0.078 0.00307692 -0.04 -0.078 -0.00307692 -0.0338462 -0.078 0.00307692 -0.0338462 -0.078
          -0.00307692 -0.04 -0.072 0.00307692 -0.04 -0.072 -0.00307692 -0.0338462 -0.072 0.00307692 -0.0338462 -0.072
          0.00923077 -0.04 -0.078 0.00923077 -0.0338462 -0.078 0.00923077 -0.04 -0.072 0.00923077 -0.0338462 -0.072
          0.0153846 -0.04 -0.078 0.0153846 -0.0338462 -0.078 0.0153846 -0.04 -0.072 0.0153846 -0.0338462 -0.072
          0.0215385 -0.04 -0.078 0.0215385 -0.0338462 -0.078 0.0215385 -0.04 -0.072 0.0215385 -0.0338462 -0.072
          0.0276923 -0.04 -0.078 0.0276923 -0.0338462 -0.078 0.0276923 -0.04 -0.072 0.0276923 -0.0338462 -0.072
          0.0338462 -0.04 -0.078 0.0338462 -0.0338462 -0.078 0.0338462 -0.04 -0.072 0.0338462 -0.0338462 -0.072
          0.04 -0.04 -0.078 0.04 -0.0338462 -0.078 0.04 -0.04 -0.072 0.04 -0.0338462 -0.072
          -0.00307692 -0.0276923 -0.078 0.00307692 -0.0276923 -0.078 -0.00307692 -0.0276923 -0.072 0.00307692 -0.0276923 -0.072
          0.00923077 -0.0276923 -0.078 0.00923077 -0.0276923 -0.072 0.0153846 -0.0276923 -0.078 0.0153846 -0.0276923 -0.072
          0.0215385 -0.0276923 -0.078 0.0215385 -0.0276923 -0.072 0.0276923 -0.0276923 -0.078 0.0276923 -0.0276923 -0.072
          0.0338462 -0.0276923 -0.078 0.0338462 -0.0276923 -0.072 0.04 -0.0276923 -0.078 0.04 -0.0276923 -0.072
          -0.00307692 -0.0215385 -0.078 0.00307692 -0.0215385 -0.078 -0.00307692 -0.0215385 -0.072 0.00307692 -0.0215385 -0.072
          0.00923077 -0.0215385 -0.078 0.00923077 -0.0215385 -0.072 0.0153846 -0.0215385 -0.078 0.0153846 -0.0215385 -0.072
          0.0215385 -0.0215385 -0.078 0.0215385 -0.0215385 -0.072 0.0276923 -0.0215385 -0.078 0.0276923 -0.0215385 -0.072
          0.0338462 -0.0215385 -0.078 0.0338462 -0.0215385 -0.072 0.04 -0.0215385 -0.078 0.04 -0.0215385 -0.072
          -0.00307692 -0.0153846 -0.078 0.00307692 -0.0153846 -0.078 -0.00307692 -0.0153846 -0.072 0.00307692 -0.0153846 -0.072
          0.00923077 -0.0153846 -0.078 0.00923077 -0.0153846 -0.072 0.0153846 -0.0153846 -0.078 0.0153846 -0.0153846 -0.072
          0.0215385 -0.0153846 -0.078 0.0215385 -0.0153846 -0.072 0.0276923 -0.0153846 -0.078 0.0276923 -0.0153846 -0.072
          0.0338462 -0.0153846 -0.078 0.0338462 -0.0153846 -0.072 0.04 -0.0153846 -0.078 0.04 -0.0153846 -0.072
          -0.00307692 -0.00923077 -0.078 0.00307692 -0.00923077 -0.078 -0.00307692 -0.00923077 -0.072 0.00307692 -0.00923077 -0.072