<?xml version="1.0"?>
<VTKFile type="UnstructuredGrid" version="0.1" byte_order="LittleEndian">
  <UnstructuredGrid>
    <Piece NumberOfCells="1092" NumberOfPoints="1456">
      <CellData Scalars="p (Pa)">
        <DataArray type="Float32" Name="p (Pa)" NumberOfComponents="1" format="ascii">
          -441393 -443894 -445644 -446674 -447152 -447301 -447320 -441165 -443673 -445400 -446385 -446813
          -446922 -446919 -440573 -443085 -444769 -445678 -446024 -446069 -446030 -439390 -441887 -443515
          -444343 -444608 -444589 -444516 -437396 -439838 -441406 -442177 -442397 -442347 -442258 -434511
          -436844 -438353 -439110 -439338 -439304 -439226 -430883 -433061 -434507 -435276 -435556 -435575
          -435530 -426820 -428822 -430197 -430984 -431329 -431419 -431417 -422695 -424523 -425825 -426624
          -427030 -427189 -427231 -418884 -420558 -421791 -422594 -423048 -423264 -423343 -415717 -417269
          -418444 -419247 -419735 -419993 -420099 -413456 -414924 -416060 -416860 -417368 -417653 -417776
          -412280 -413706 -414821 -415619 -416138 -416435 -416567 -446755 -449421 -451179 -452096 -452409
          -452407 -452338 -446682 -449369 -451091 -451935 -452166 -452100 -451996 -446344 -449061 -450718
          -451434 -451529 -451357 -451196 -445395 -448129 -449705 -450285 -450243 -449968 -449752 -443466
          -446161 -447663 -448162 -448053 -447729 -447488 -440376 -442937 -444396 -444912 -444842 -444553
          -444332 -436341 -438702 -440117 -440703 -440743 -440553 -440388 -431778 -433914 -435271 -435927
          -436096 -436027 -435932 -427143 -429066 -430355 -431063 -431344 -431388 -431361 -422867 -424610
          -425834 -426574 -426940 -427074 -427105 -419323 -420927 -422098 -422856 -423281 -423481 -423552
          -416799 -418309 -419444 -420211 -420673 -420913 -421011 -415488 -416952 -418068 -418839 -419318
          -419578 -419689 -457728 -460741 -462491 -463132 -463060 -462716 -462450 -458059 -461132 -462807
          -463291 -463052 -462580 -462246 -458404 -461590 -463123 -463324 -462798 -462110 -461664 -458137
          -461454 -462810 -462694 -461867 -460963 -460406 -456458 -459814 -461038 -460750 -459779 -458774
          -458165 -452858 -455988 -457242 -457091 -456253 -455336 -454768 -447827 -450609 -451901 -452006
          -451454 -450755 -450300 -442094 -444517 -445796 -446122 -445866 -445419 -445104 -436295 -438409
          -439642 -440124 -440108 -439885 -439701 -430978 -432852 -434037 -434619 -434780 -434728 -434649
          -426598 -428299 -429445 -430093 -430373 -430442 -430436 -423495 -425085 -426205 -426892 -427246
          -427390 -427430 -421890 -423426 -424533 -425238 -425628 -425807 -425870 -474922 -478501 -480163
          -480254 -479468 -478508 -477894 -476135 -479869 -481348 -481075 -479927 -478703 -477954 -478062
          -482142 -483242 -482270 -480467 -478780 -477799 -479553 -484174 -484727 -482884 -480344 -478167
          -476944 -478730 -483799 -483893 -481526 -478610 -476188 -474841 -473936 -478368 -478892 -477104
          -474595 -472383 -471115 -466791 -470391 -471291 -470324 -468556 -466832 -465797 -458797 -461686
          -462722 -462361 -461273 -460088 -459343 -450848 -453226 -454283 -454306 -453727 -452997 -452515
          -443651 -445689 -446745 -447014 -446791 -446396 -446115 -437787 -439608 -440667 -441097 -441111
          -440945 -440801 -433673 -435364 -436428 -436958 -437118 -437091 -437031 -431559 -433189 -434256
          -434835 -435064 -435102 -435082 -499197 -503602 -504983 -504069 -502078 -500119 -498952 -502223
          -506999 -507904 -506152 -503389 -500895 -499462 -507682 -513455 -513234 -509708 -505453 -501979
          -500072 -513691 -521614 -519287 -513163 -507046 -502447 -500014 -515753 -526632 -521682 -513549
          -506321 -501082 -498335 -507668 -515496 -513446 -507677 -501673 -496899 -494280 -495933 -501129
          -500904 -497699 -493601 -489890 -487726 -483768 -487283 -487664 -485986 -483395 -480837 -479278
          -472042 -474646 -475227 -474391 -472825 -471195 -470174 -461614 -463756 -464470 -464154 -463271
          -462291 -461664 -453265 -455168 -455998 -456028 -455594 -455038 -454668 -447498 -449275 -450191
          -450439 -450278 -449974 -449756 -444566 -446287 -447247 -447600 -447569 -447383 -447235 -531466
          -536965 -537698 -535114 -531259 -527808 -525831 -538010 -544283 -543809 -539397 -533992 -529521
          -527051 -551050 -560023 -556140 -547396 -538759 -532313 -528923 -568651 -586358 -573547 -556997
          -543761 -534814 -530308 -580718 -620334 -587437 -562276 -545619 -534956 -529649 -561736 -580020
          -568720 -553525 -540509 -530720 -525493 -539810 -548153 -545008 -537599 -529413 -521746 -517299
          -520342 -524259 -523043 -519100 -514016 -508880 -505743 -502025 -504376 -503787 -501454 -498269
          -495064 -493076 -486013 -487925 -487825 -486480 -484524 -482581 -481377 -473524 -475331 -475644
          -474980 -473830 -472664 -471940 -465113 -466890 -467485 -467256 -466595 -465875 -465420 -460910
          -462674 -463407 -463390 -462959 -462443 -462108 -572208 -578936 -578490 -573472 -567039 -561577
          -558520 -584965 -592836 -589664 -581120 -571886 -564645 -560746 -613056 -626561 -614291 -596465
          -580945 -570049 -564490 -658614 -704000 -656409 -617897 -592103 -576029 -568236 -702632 -966233
          -709162 -635731 -600040 -579459 -569655 -646908 -697155 -655989 -622241 -596328 -576513 -566143
          -604958 -618268 -609190 -596168 -582304 -565614 -556079 -574907 -576748 -571986 -564955 -556336
          -545997 -539625 -544732 -544789 -541474 -536766 -531141 -525161 -521421 -518599 -519218 -517328
          -514271 -510677 -507199 -505061 -499103 -500338 -499599 -497803 -495578 -493506 -492253 -486513
          -488083 -488069 -487094 -485705 -484395 -483606 -480390 -482090 -482412 -481831 -480835 -479863
          -479274 -620597 -628353 -626309 -618359 -608850 -600984 -596636 -642939 -650694 -643823 -630268
          -616374 -605742 -600092 -697510 -706370 -684093 -655497 -631242 -614595 -606232 -799381 -830102
          -757713 -695111 -652037 -625755 -613294 -855629 -1.14028e+06 -856979 -739024 -672926 -635454 -618241
          -757609 -820008 -771737 -727435 -679473 -637689 -616944 -698328 -709458 -697664 -687057 -673161
          -627756 -605444 -662496 -649661 -637671 -628667 -616780 -594389 -581140 -607888 -598784 -589382
          -581305 -572386 -561440 -554608 -561821 -558400 -552873 -547156 -541238 -535431 -531872 -530288
          -529951 -527295 -523790 -520078 -516758 -514782 -511282 -512275 -511251 -509205 -506847 -504772
          -503556 -502406 -503869 -503549 -502194 -500465 -498921 -498018 -673496 -682294 -678824 -668085
          -655488 -645118 -639398 -708209 -713619 -702776 -684331 -665725 -651557 -644047 -809958 -794081
          -760128 -720491 -686871 -663994 -652578 -1.12586e+06 -967283 -878217 -786362 -720065 -681166 -663166
          -1.13021e+06 -1.15294e+06 -1.13366e+06 -907832 -765426 -700099 -672436 -900973 -943334 -930996 -924713 -808578
          -714409 -674960 -834456 -825243 -818901 -849360 -911914 -717279 -663384 -824672 -750425 -721913
          -716149 -705358 -653427 -627397 -705013 -668268 -646241 -633663 -620553 -601432 -590011 -617503
          -604572 -592575 -583066 -574113 -565196 -559822 -566145 -562686 -557041 -551244 -545690 -540869
          -538048 -538114 -538063 -535621 -532235 -528738 -525794 -524104 -525689 -526730 -525574 -523294
          -520733 -518560 -517316 -724623 -736213 -732959 -720635 -705558 -692884 -685828 -763202 -771949
          -760402 -739462 -717530 -700398 -691209 -868464 -860346 -823314 -780340 -742162 -714952 -701094
          -1.12413e+06 -1.03089e+06 -934421 -848773 -780437 -735219 -713411 -1.11285e+06 -1.15518e+06 -1.06937e+06 -945659 -833733
          -758574 -724382 -1.00872e+06 -1.04618e+06 -1.02905e+06 -1.02614e+06 -911207 -780880 -727878 -1.0001e+06 -953370 -951928
          -1.11258e+06 -1.12245e+06 -791529 -713933 -1.09624e+06 -870156 -810784 -811120 -781859 -703646 -668051 -836519
          -744547 -702945 -683881 -663306 -636869 -621929 -679654 -651587 -631001 -616854 -604285 -592537
          -585699 -602388 -594702 -585541 -577235 -569774 -563580 -560043 -564242 -562931 -558972 -554232
          -549634 -545901 -543797 -548144 -548716 -546724 -543557 -540222 -537481 -535938 -772886 -788921
          -788100 -775781 -758699 -743692 -735209 -811315 -826429 -817377 -795839 -771245 -751344 -740529
          -912468 -918549 -883754 -839024 -796721 -765843 -749985 -1.14599e+06 -1.09175e+06 -996130 -909559 -834761
          -784866 -760768 -1.16174e+06 -1.15883e+06 -1.11282e+06 -1.00988e+06 -883169 -803685 -767967 -1.12477e+06 -1.14432e+06 -1.13068e+06
          -1.15218e+06 -936341 -813681 -764351 -1.15512e+06 -1.05888e+06 -1.02864e+06 -1.13343e+06 -935411 -794074 -740526 -1.14571e+06
          -940045 -863301 -843966 -783248 -722822 -693175 -911501 -795391 -741361 -713689 -685510 -659516
          -645221 -722919 -686215 -659940 -641853 -626450 -613750 -606638 -630271 -620078 -608618 -598485
          -589688 -582771 -578929 -585701 -583688 -578781 -573135 -567808 -563600 -561268 -567210 -567569
          -565084 -561354 -557521 -554425 -552700 -818598 -840922 -845687 -835716 -816187 -797834 -787342
          -853101 -878126 -875583 -855615 -827979 -804542 -791694 -934063 -971621 -945696 -899523 -851786
          -816707 -798776 -1.07491e+06 -1.15789e+06 -1.07046e+06 -970072 -884528 -830311 -804716 -1.14809e+06 -1.16074e+06 -1.1624e+06
          -1.04933e+06 -914351 -837311 -803359 -1.16223e+06 -1.20852e+06 -1.16388e+06 -1.12874e+06 -925731 -828132 -788248 -1.17274e+06
          -1.0924e+06 -1.02215e+06 -979635 -867691 -789794 -754748 -1.10979e+06 -951861 -869766 -824324 -771477 -728977
          -707323 -912633 -809510 -755287 -722529 -694495 -672382 -660490 -734784 -701413 -675403 -656185
          -640489 -628524 -622019 -644189 -635012 -623750 -613344 -604376 -597551 -593833 -599665 -598079
          -593312 -587606 -582194 -577963 -575638 -580976 -581613 -579247 -575512 -571629 -568495 -566754
        </DataArray>
        <DataArray type="Float32" Name="saturation" NumberOfComponents="1" format="ascii">
          0.75165 0.751422 0.751262 0.751169 0.751126 0.751112 0.751111 0.751671 0.751442 0.751285 0.751195 0.751156
          0.751146 0.751147 0.751725 0.751495 0.751342 0.751259 0.751228 0.751224 0.751227 0.751834 0.751605 0.751456
          0.751381 0.751357 0.751358 0.751365 0.752017 0.751792 0.751649 0.751578 0.751558 0.751563 0.751571 0.752284
          0.752068 0.751929 0.751859 0.751838 0.751842 0.751849 0.752622 0.752419 0.752285 0.752213 0.752187 0.752186
          0.75219 0.753004 0.752816 0.752687 0.752613 0.752581 0.752572 0.752572 0.753395 0.753221 0.753098 0.753022
          0.752984 0.752969 0.752965 0.753758 0.753598 0.753481 0.753404 0.753361 0.75334 0.753333 0.754063 0.753914
          0.753801 0.753724 0.753677 0.753652 0.753642 0.754282 0.75414 0.75403 0.753953 0.753904 0.753877 0.753865
          0.754396 0.754258 0.75415 0.754073 0.754023 0.753994 0.753981 0.751162 0.750921 0.750763 0.75068 0.750652
          0.750653 0.750659 0.751168 0.750926 0.750771 0.750695 0.750674 0.75068 0.750689 0.751199 0.750953 0.750804
          0.75074 0.750731 0.750747 0.750761 0.751285 0.751037 0.750895 0.750843 0.750847 0.750872 0.750891 0.751461
          0.751216 0.751079 0.751034 0.751044 0.751074 0.751095 0.751743 0.751509 0.751376 0.751329 0.751335 0.751362
          0.751382 0.752115 0.751897 0.751767 0.751713 0.751709 0.751727 0.751742 0.752539 0.75234 0.752214 0.752153
          0.752137 0.752144 0.752153 0.752973 0.752793 0.752672 0.752606 0.752579 0.752575 0.752578 0.753378 0.753213
          0.753097 0.753027 0.752993 0.75298 0.752977 0.753716 0.753563 0.753451 0.753379 0.753339 0.75332 0.753313
          0.753959 0.753814 0.753705 0.753631 0.753587 0.753564 0.753555 0.754085 0.753944 0.753837 0.753763 0.753717
          0.753692 0.753681 0.750178 0.749912 0.749758 0.749702 0.749708 0.749738 0.749762 0.750149 0.749878 0.74973
          0.749688 0.749709 0.74975 0.74978 0.750119 0.749837 0.749703 0.749685 0.749731 0.749792 0.749831 0.750142
          0.749849 0.74973 0.74974 0.749813 0.749893 0.749942 0.750291 0.749994 0.749886 0.749911 0.749997 0.750086
          0.75014 0.750612 0.750333 0.750222 0.750235 0.750309 0.750391 0.750442 0.751065 0.750814 0.750698 0.750689
          0.750738 0.750801 0.750842 0.751586 0.751365 0.751249 0.751219 0.751242 0.751283 0.751311 0.752119 0.751924
          0.75181 0.751766 0.751768 0.751788 0.751805 0.752613 0.752439 0.752328 0.752274 0.752259 0.752264 0.752272
          0.753025 0.752865 0.752757 0.752696 0.75267 0.752664 0.752664 0.753319 0.753168 0.753062 0.752997 0.752964
          0.75295 0.752946 0.753471 0.753325 0.75322 0.753153 0.753116 0.7531 0.753094 0.748679 0.748373 0.748232
          0.748224 0.748291 0.748373 0.748425 0.748576 0.748257 0.748132 0.748155 0.748252 0.748356 0.74842 0.748411
          0.748064 0.747971 0.748053 0.748206 0.74835 0.748433 0.748284 0.747893 0.747846 0.748002 0.748217 0.748402
          0.748506 0.748354 0.747924 0.747916 0.748116 0.748364 0.748571 0.748686 0.748764 0.748385 0.74834 0.748493
          0.748707 0.748898 0.749007 0.749382 0.74907 0.748992 0.749075 0.749229 0.749379 0.749469 0.750084 0.749829
          0.749738 0.74977 0.749865 0.74997 0.750036 0.750792 0.750579 0.750485 0.750483 0.750535 0.7506 0.750643
          0.751444 0.751258 0.751163 0.751138 0.751158 0.751194 0.75122 0.751981 0.751814 0.751716 0.751677 0.751676
          0.751691 0.751704 0.752362 0.752205 0.752107 0.752058 0.752043 0.752046 0.752051 0.752559 0.752407 0.752308
          0.752254 0.752233 0.75223 0.752231 0.746644 0.746284 0.746172 0.746246 0.746408 0.746568 0.746664 0.746396
          0.746009 0.745935 0.746077 0.746301 0.746505 0.746622 0.745953 0.74549 0.745507 0.74579 0.746134 0.746416
          0.746572 0.745471 0.744842 0.745026 0.745513 0.746005 0.746378 0.746577 0.745306 0.744449 0.744837 0.745482
          0.746063 0.74649 0.746715 0.745955 0.745327 0.74549 0.745954 0.746441 0.746833 0.747049 0.746912 0.746486
          0.746504 0.746767 0.747105 0.747414 0.747594 0.747927 0.747631 0.747599 0.74774 0.747958 0.748175 0.748307
          0.748927 0.748703 0.748653 0.748725 0.74886 0.749 0.749088 0.749835 0.749647 0.749585 0.749612 0.74969
          0.749776 0.749831 0.750576 0.750406 0.750332 0.750329 0.750368 0.750418 0.75045 0.751094 0.750934 0.750852
          0.750829 0.750844 0.750871 0.750891 0.75136 0.751204 0.751117 0.751085 0.751088 0.751105 0.751118 0.744073
          0.743649 0.743593 0.743791 0.744089 0.744357 0.744511 0.743569 0.743091 0.743127 0.743463 0.743877 0.744224
          0.744416 0.742581 0.741914 0.742201 0.742855 0.743511 0.744007 0.74427 0.741281 0.740011 0.740927 0.742138
          0.74313 0.743814 0.744162 0.740412 0.73767 0.739935 0.741748 0.74299 0.743803 0.744214 0.741787 0.740462
          0.741276 0.742396 0.743378 0.74413 0.744538 0.743431 0.742799 0.743036 0.7436 0.744232 0.744832 0.745183
          0.744943 0.744634 0.74473 0.745041 0.745445 0.745857 0.74611 0.746413 0.746221 0.746269 0.746459 0.74672
          0.746984 0.747149 0.747738 0.747578 0.747586 0.747699 0.747863 0.748027 0.748129 0.748799 0.748644 0.748617
          0.748674 0.748773 0.748873 0.748936 0.749529 0.749374 0.749322 0.749342 0.749399 0.749462 0.749502 0.749897
          0.749742 0.749678 0.749679 0.749717 0.749762 0.749792 0.741023 0.740539 0.740571 0.740932 0.741399 0.741799
          0.742025 0.74011 0.739555 0.739778 0.740383 0.741046 0.741574 0.74186 0.738162 0.737255 0.738078 0.739302
          0.740395 0.74118 0.741585 0.735173 0.732385 0.735313 0.737834 0.739606 0.740748 0.741312 0.732466 0.719047
          0.732079 0.736649 0.739054 0.740502 0.741208 0.735922 0.732794 0.73534 0.737543 0.739311 0.740713 0.741464
          0.738714 0.737809 0.738425 0.739322 0.740299 0.741503 0.742206 0.740828 0.740696 0.741039 0.741551 0.742187
          0.742961 0.743445 0.743057 0.743052 0.743304 0.743664 0.744098 0.744564 0.744857 0.74508 0.745031 0.745181
          0.745425 0.745712 0.745992 0.746166 0.746652 0.74655 0.746611 0.746758 0.746942 0.747113 0.747217 0.747696
          0.747564 0.747566 0.747647 0.747764 0.747874 0.747941 0.748213 0.748069 0.748042 0.748091 0.748175 0.748258
          0.748308 0.737653 0.737136 0.737271 0.737803 0.738448 0.738988 0.73929 0.736179 0.735679 0.736122 0.737009
          0.737937 0.738661 0.73905 0.732773 0.732244 0.733586 0.735371 0.736944 0.738057 0.738627 0.727046 0.725458
          0.729299 0.732917 0.735592 0.737308 0.738145 0.724181 0.712045 0.724114 0.730348 0.734275 0.736667 0.737811
          0.729304 0.725973 0.728528 0.731012 0.73387 0.736521 0.737899 0.732724 0.732061 0.732764 0.733405 0.73426
          0.737175 0.738681 0.734928 0.735745 0.736522 0.737115 0.73791 0.739447 0.740382 0.738514 0.739141 0.739798
          0.74037 0.74101 0.741809 0.742315 0.741781 0.742034 0.742445 0.742874 0.743322 0.743767 0.744041 0.744164
          0.74419 0.744397 0.744671 0.744963 0.745226 0.745384 0.745664 0.745584 0.745666 0.745831 0.746021 0.746189
          0.746288 0.746381 0.746262 0.746288 0.746399 0.74654 0.746666 0.746741 0.734239 0.733696 0.73391 0.734577
          0.735372 0.736038 0.736409 0.732135 0.731816 0.732458 0.733572 0.734725 0.735623 0.736107 0.726493 0.727327
          0.729165 0.731414 0.733417 0.734833 0.735558 0.712583 0.719001 0.723081 0.727738 0.731439 0.733766 0.734886
          0.71242 0.711578 0.712291 0.721681 0.728873 0.732618 0.734305 0.722001 0.72006 0.720617 0.720903 0.726565
          0.73177 0.734149 0.725237 0.725705 0.72603 0.724491 0.721491 0.731601 0.734872 0.725734 0.729705 0.731331
          0.731668 0.732304 0.735504 0.737199 0.732325 0.734565 0.735965 0.736785 0.737656 0.738957 0.739753 0.737861
          0.738741 0.739573 0.740244 0.740886 0.741534 0.741929 0.741464 0.741718 0.742134 0.742566 0.742984 0.74335
          0.743566 0.743561 0.743565 0.743752 0.744013 0.744284 0.744514 0.744646 0.744522 0.744441 0.744531 0.74471
          0.744912 0.745084 0.745182 0.731174 0.730508 0.730694 0.731406 0.732292 0.733052 0.73348 0.728995 0.728516
          0.72915 0.730323 0.731587 0.7326 0.733153 0.723552 0.723949 0.725804 0.728061 0.73017 0.731738 0.732558
          0.712648 0.716309 0.720462 0.72452 0.728056 0.730565 0.731828 0.713074 0.711496 0.714759 0.719956 0.725274
          0.729251 0.731188 0.717228 0.715686 0.716385 0.716504 0.721524 0.728032 0.730986 0.717591 0.719613 0.719677
          0.713085 0.712711 0.727462 0.731798 0.71371 0.72347 0.72645 0.726432 0.727979 0.732406 0.734579 0.725133
          0.730035 0.732448 0.733599 0.734877 0.736575 0.737563 0.733859 0.735621 0.73696 0.737905 0.738761 0.739576
          0.740058 0.738891 0.739425 0.740069 0.740661 0.7412 0.741652 0.741912 0.741603 0.7417 0.741991 0.742343
          0.742687 0.742968 0.743128 0.742799 0.742756 0.742906 0.743146 0.7434 0.743609 0.743728 0.728465 0.727601
          0.727645 0.728308 0.729244 0.730084 0.730565 0.726422 0.725645 0.726109 0.727233 0.728554 0.729653 0.730263
          0.721466 0.721185 0.722816 0.725007 0.727187 0.72885 0.72973 0.711834 0.713884 0.717759 0.721601 0.725222
          0.727818 0.72913 0.711257 0.711363 0.713076 0.717179 0.722844 0.72682 0.728734 0.712624 0.711895 0.712402
          0.711606 0.720375 0.7263 0.728932 0.711498 0.715176 0.716401 0.7123 0.720417 0.727327 0.730263 0.711844
          0.720208 0.723804 0.724759 0.727905 0.731278 0.733034 0.721511 0.727257 0.730215 0.731812 0.7335 0.735116
          0.736031 0.731273 0.733457 0.735089 0.736249 0.737262 0.738114 0.738599 0.737009 0.737688 0.738464 0.739161
          0.739776 0.740265 0.74054 0.740057 0.7402 0.74055 0.740956 0.741343 0.74165 0.741822 0.741386 0.74136
          0.741542 0.741816 0.742099 0.742329 0.742457 0.726046 0.724912 0.724673 0.725174 0.72617 0.727128 0.727685
          0.724305 0.723085 0.723208 0.724181 0.725566 0.726775 0.727453 0.720478 0.718812 0.719955 0.722069 0.72437
          0.726143 0.727078 0.714541 0.711397 0.714716 0.718879 0.722779 0.725447 0.726766 0.711757 0.711293 0.711233
          0.715559 0.721379 0.725093 0.726837 0.711239 0.709588 0.711179 0.712475 0.720856 0.725558 0.727637 0.710859
          0.713859 0.716669 0.718465 0.72359 0.727554 0.729464 0.713191 0.71968 0.723489 0.725752 0.728542 0.730923
          0.732188 0.721458 0.726516 0.729433 0.731296 0.732954 0.734309 0.735054 0.73059 0.732539 0.734121 0.735328
          0.736338 0.737124 0.737557 0.736098 0.736696 0.737442 0.738142 0.738754 0.739226 0.739485 0.73908 0.73919
          0.739522 0.739923 0.740306 0.740609 0.740776 0.740393 0.740348 0.740517 0.740785 0.741065 0.741293 0.74142
        </DataArray>
        <DataArray type="Float32" Name="process rank" NumberOfComponents="1" format="ascii">
          1 1 1 1 1 1 1 1 1 1 1 1
          1 1 1 1 1 1 1 1 1 1 1 1
          1 1 1 1 1 1 1 1 1 1 1 1
          1 1 1 1 1 1 1 1 1 1 1 1
          1 1 1 1 1 1 1 1 1 1 1 1
          1 1 1 1 1 1 1 1 1 1 1 1
          1 1 1 1 1 1 1 1 1 1 1 1
          1 1 1 1 1 1 1 1 1 1 1 1
          1 1 1 1 1 1 1 1 1 1 1 1
          1 1 1 1 1 1 1 1 1 1 1 1
          1 1 1 1 1 1 1 1 1 1 1 1
          1 1 1 1 1 1 1 1 1 1 1 1
          1 1 1 1 1 1 1 1 1 1 1 1
          1 1 1 1 1 1 1 1 1 1 1 1
          1 1 1 1 1 1 1 1 1 1 1 1
          1 1 1 1 1 1 1 1 1 1 1 1
          1 1 1 1 1 1 1 1 1 1 1 1
          1 1 1 1 1 1 1 1 1 1 1 1
          1 1 1 1 1 1 1 1 1 1 1 1
          1 1 1 1 1 1 1 1 1 1 1 1
          1 1 1 1 1 1 1 1 1 1 1 1
          1 1 1 1 1 1 1 1 1 1 1 1
          1 1 1 1 1 1 1 1 1 1 1 1
          1 1 1 1 1 1 1 1 1 1 1 1
          1 1 1 1 1 1 1 1 1 1 1 1
          1 1 1 1 1 1 1 1 1 1 1 1
          1 1 1 1 1 1 1 1 1 1 1 1
          1 1 1 1 1 1 1 1 1 1 1 1
          1 1 1 1 1 1 1 1 1 1 1 1
          1 1 1 1 1 1 1 1 1 1 1 1
          1 1 1 1 1 1 1 1 1 1 1 1
          1 1 1 1 1 1 1 1 1 1 1 1
          1 1 1 1 1 1 1 1 1 1 1 1
          1 1 1 1 1 1 1 1 1 1 1 1
          1 1 1 1 1 1 1 1 1 1 1 1
          1 1 1 1 1 1 1 1 1 1 1 1
          1 1 1 1 1 1 1 1 1 1 1 1
          1 1 1 1 1 1 1 1 1 1 1 1
          1 1 1 1 1 1 1 1 1 1 1 1
          1 1 1 1 1 1 1 1 1 1 1 1
          1 1 1 1 1 1 1 1 1 1 1 1
          1 1 1 1 1 1 1 1 1 1 1 1
          1 1 1 1 1 1 1 1 1 1 1 1
          1 1 1 1 1 1 1 1 1 1 1 1
          1 1 1 1 1 1 1 1 1 1 1 1
          1 1 1 1 1 1 1 1 1 1 1 1
          1 1 1 1 1 1 1 1 1 1 1 1
          1 1 1 1 1 1 1 1 1 1 1 1
          1 1 1 1 1 1 1 1 1 1 1 1
          1 1 1 1 1 1 1 1 1 1 1 1
          1 1 1 1 1 1 1 1 1 1 1 1
          1 1 1 1 1 1 1 1 1 1 1 1
          1 1 1 1 1 1 1 1 1 1 1 1
          1 1 1 1 1 1 1 1 1 1 1 1
          1 1 1 1 1 1 1 1 1 1 1 1
          1 1 1 1 1 1 1 1 1 1 1 1
          1 1 1 1 1 1 1 1 1 1 1 1
          1 1 1 1 1 1 1 1 1 1 1 1
          1 1 1 1 1 1 1 1 1 1 1 1
          1 1 1 1 1 1 1 1 1 1 1 1
          1 1 1 1 1 1 1 1 1 1 1 1
          1 1 1 1 1 1 1 1 1 1 1 1
          1 1 1 1 1 1 1 1 1 1 1 1
          1 1 1 1 1 1 1 1 1 1 1 1
          1 1 1 1 1 1 1 1 1 1 1 1
          1 1 1 1 1 1 1 1 1 1 1 1
          1 1 1 1 1 1 1 1 1 1 1 1
          1 1 1 1 1 1 1 1 1 1 1 1
          1 1 1 1 1 1 1 1 1 1 1 1
          1 1 1 1 1 1 1 1 1 1 1 1
          1 1 1 1 1 1 1 1 1 1 1 1
          1 1 1 1 1 1 1 1 1 1 1 1
          1 1 1 1 1 1 1 1 1 1 1 1
          1 1 1 1 1 1 1 1 1 1 1 1
          1 1 1 1 1 1 1 1 1 1 1 1
          1 1 1 1 1 1 1 1 1 1 1 1
          1 1 1 1 1 1 1 1 1 1 1 1
          1 1 1 1 1 1 1 1 1 1 1 1
          1 1 1 1 1 1 1 1 1 1 1 1
          1 1 1 1 1 1 1 1 1 1 1 1
          1 1 1 1 1 1 1 1 1 1 1 1
          1 1 1 1 1 1 1 1 1 1 1 1
          1 1 1 1 1 1 1 1 1 1 1 1
          1 1 1 1 1 1 1 1 1 1 1 1
          1 1 1 1 1 1 1 1 1 1 1 1
          1 1 1 1 1 1 1 1 1 1 1 1
          1 1 1 1 1 1 1 1 1 1 1 1
          1 1 1 1 1 1 1 1 1 1 1 1
          1 1 1 1 1 1 1 1 1 1 1 1
          1 1 1 1 1 1 1 1 1 1 1 1
          1 1 1 1 1 1 1 1 1 1 1 1
        </DataArray>
      </CellData>
      <Points>
        <DataArray type="Float32" Name="Coordinates" NumberOfComponents="3" format="ascii">
          -0.00307692 -0.04 -0.15 0.00307692 -0.04 -0.15 -0.00307692 -0.0338462 -0.15 0.00307692 -0.0338462 -0.15
          -0.00307692 -0.04 -0.144 0.00307692 -0.04 -0.144 -0.00307692 -0.0338462 -0.144 0.00307692 -0.0338462 -0.144
          0.00923077 -0.04 -0.15 0.00923077 -0.0338462 -0.15 0.00923077 -0.04 -0.144 0.00923077 -0.0338462 -0.144
          0.0153846 -0.04 -0.15 0.0153846 -0.0338462 -0.15 0.0153846 -0.04 -0.144 0.0153846 -0.0338462 -0.144
          0.0215385 -0.04 -0.15 0.0215385 -0.0338462 -0.15 0.0215385 -0.04 -0.144 0.0215385 -0.0338462 -0.144
          0.0276923 -0.04 -0.15 0.0276923 -0.0338462 -0.15 0.0276923 -0.04 -0.144 0.0276923 -0.0338462 -0.144
          0.0338462 -0.04 -0.15 0.0338462 -0.0338462 -0.15 0.0338462 -0.04 -0.144 0.0338462 -0.0338462 -0.144
          0.04 -0.04 -0.15 0.04 -0.0338462 -0.15 0.04 -0.04 -0.144 0.04 -0.0338462 -0.144
          -0.00307692 -0.0276923 -0.15 0.00307692 -0.0276923 -0.15 -0.00307692 -0.0276923 -0.144 0.00307692 -0.0276923 -0.144
          0.00923077 -0.0276923 -0.15 0.00923077 -0.0276923 -0.144 0.0153846 -0.0276923 -0.15 0.0153846 -0.0276923 -0.144
          0.0215385 -0.0276923 -0.15 0.0215385 -0.0276923 -0.144 0.0276923 -0.0276923 -0.15 0.0276923 -0.0276923 -0.144
          0.0338462 -0.0276923 -0.15 0.0338462 -0.0276923 -0.144 0.04 -0.0276923 -0.15 0.04 -0.0276923 -0.144
          -0.00307692 -0.0215385 -0.15 0.00307692 -0.0215385 -0.15 -0.00307692 -0.0215385 -0.144 0.00307692 -0.0215385 -0.144
          0.00923077 -0.0215385 -0.15 0.00923077 -0.0215385 -0.144 0.0153846 -0.0215385 -0.15 0.0153846 -0.0215385 -0.144
          0.0215385 -0.0215385 -0.15 0.0215385 -0.0215385 -0.144 0.0276923 -0.0215385 -0.15 0.0276923 -0.0215385 -0.144
          0.0338462 -0.0215385 -0.15 0.0338462 -0.0215385 -0.144 0.04 -0.0215385 -0.15 0.04 -0.0215385 -0.144
          -0.00307692 -0.0153846 -0.15 0.00307692 -0.0153846 -0.15 -0.00307692 -0.0153846 -0.144 0.00307692 -0.0153846 -0.144
          0.00923077 -0.0153846 -0.15 0.00923077 -0.0153846 -0.144 0.0153846 -0.0153846 -0.15 0.0153846 -0.0153846 -0.144
          0.0215385 -0.0153846 -0.15 0.0215385 -0.0153846 -0.144 0.0276923 -0.0153846 -0.15 0.0276923 -0.0153846 -0.144
          0.0338462 -0.0153846 -0.15 0.0338462 -0.0153846 -0.144 0.04 -0.0153846 -0.15 0.04 -0.0153846 -0.144
          -0.00307692 -0.00923077 -0.15 0.00307692 -0.00923077 -0.15 -0.00307692 -0.00923077 -0.144 0.00307692 -0.00923077 -0.144
          0.00923077 -0.00923077 -0.15 0.00923077 -0.00923077 -0.144 0.0153846 -0.00923077 -0.15 0.0153846 -0.00923077 -0.144
          0.0215385 -0.00923077 -0.15 0.0215385 -0.00923077 -0.144 0.0276923 -0.00923077 -0.15 0.0276923 -0.00923077 -0.144
          0.0338462 -0.00923077 -0.15 0.0338462 -0.00923077 -0.144 0.04 -0.00923077 -0.15 0.04 -0.00923077 -0.144
          -0.00307692 -0.00307692 -0.15 0.00307692 -0.00307692 -0.15 -0.00307692 -0.00307692 -0.144 0.00307692 -0.00307692 -0.144
          0.00923077 -0.00307692 -0.15 0.00923077 -0.00307692 -0.144 0.0153846 -0.00307692 -0.15 0.0153846 -0.00307692 -0.144
          0.0215385 -0.00307692 -0.15 0.0215385 -0.00307692 -0.144 0.0276923 -0.00307692 -0.15 0.0276923 -0.00307692 -0.144
          0.0338462 -0.00307692 -0.15 0.0338462 -0.00307692 -0.144 0.04 -0.00307692 -0.15 0.04 -0.00307692 -0.144
          -0.00307692 0.00307692 -0.15 0.00307692 0.00307692 -0.15 -0.00307692 0.00307692 -0.144 0.00307692 0.00307692 -0.144
          0.00923077 0.00307692 -0.15 0.00923077 0.00307692 -0.144 0.0153846 0.00307692 -0.15 0.0153846 0.00307692 -0.144
          0.0215385 0.00307692 -0.15 0.0215385 0.00307692 -0.144 0.0276923 0.00307692 -0.15 0.0276923 0.00307692 -0.144
          0.0338462 0.00307692 -0.15 0.0338462 0.00307692 -0.144 0.04 0.00307692 -0.15 0.04 0.00307692 -0.144
          -0.00307692 0.00923077 -0.15 0.00307692 0.00923077 -0.15 -0.00307692 0.00923077 -0.144 0.00307692 0.00923077 -0.144
          0.00923077 0.00923077 -0.15 0.00923077 0.00923077 -0.144 0.0153846 0.00923077 -0.15 0.0153846 0.00923077 -0.144
          0.0215385 0.00923077 -0.15 0.0215385 0.00923077 -0.144 0.0276923 0.00923077 -0.15 0.0276923 0.00923077 -0.144
          0.0338462 0.00923077 -0.15 0.0338462 0.00923077 -0.144 0.04 0.00923077 -0.15 0.04 0.00923077 -0.144
          -0.00307692 0.0153846 -0.15 0.00307692 0.0153846 -0.15 -0.00307692 0.0153846 -0.144 0.00307692 0.0153846 -0.144
          0.00923077 0.0153846 -0.15 0.00923077 0.0153846 -0.144 0.0153846 0.0153846 -0.15 0.0153846 0.0153846 -0.144
          0.0215385 0.0153846 -0.15 0.0215385 0.0153846 -0.144 0.0276923 0.0153846 -0.15 0.0276923 0.0153846 -0.144
          0.0338462 0.0153846 -0.15 0.0338462 0.0153846 -0.144 0.04 0.0153846 -0.15 0.04 0.0153846 -0.144
          -0.00307692 0.0215385 -0.15 0.00307692 0.0215385 -0.15 -0.00307692 0.0215385 -0.144 0.00307692 0.0215385 -0.144
          0.00923077 0.0215385 -0.15 0.00923077 0.0215385 -0.144 0.0153846 0.0215385 -0.15 0.0153846 0.0215385 -0.144
          0.0215385 0.0215385 -0.15 0.0215385 0.0215385 -0.144 0.0276923 0.0215385 -0.15 0.0276923 0.0215385 -0.144
          0.0338462 0.0215385 -0.15 0.0338462 0.0215385 -0.144 0.04 0.0215385 -0.15 0.04 0.0215385 -0.144
          -0.00307692 0.0276923 -0.15 0.00307692 0.0276923 -0.15 -0.00307692 0.0276923 -0.144 0.00307692 0.0276923 -0.144
          0.00923077 0.0276923 -0.15 0.00923077 0.0276923 -0.144 0.0153846 0.0276923 -0.15 0.0153846 0.0276923 -0.144
          0.0215385 0.0276923 -0.15 0.0215385 0.0276923 -0.144 0.0276923 0.0276923 -0.15 0.0276923 0.0276923 -0.144
          0.0338462 0.0276923 -0.15 0.0338462 0.0276923 -0.144 0.04 0.0276923 -0.15 0.04 0.0276923 -0.144