<?xml version="1.0"?>
<VTKFile type="UnstructuredGrid" version="0.1" byte_order="LittleEndian">
  <UnstructuredGrid>
    <Piece NumberOfCells="3800" NumberOfPoints="4620">
      <CellData Scalars="p (Pa)">
        <DataArray type="Float32" Name="p (Pa)" NumberOfComponents="1" format="ascii">
          35584.9 35550.4 35483.5 35387.8 35269.1 35135 34994.2 34856.4 34731.7 34628.7 35578.6 35543.8
          35476.1 35379.3 35259.2 35123.3 34980.4 34840.6 34713.7 34608.9 35567.1 35531.7 35462.6 35363.9
          35241.2 35102.1 34955.7 34811.9 34681.2 34572.9 35552.7 35516.4 35445.8 35344.6 35218.8 35075.8
          34924.8 34776.2 34640.7 34528.1 35537.9 35500.9 35428.7 35325.3 35196.4 35049.6 34894.4 34741.1
          34600.9 34484 35526.1 35488.5 35415.3 35310.2 35179.2 35029.8 34871.4 34714.8 34571 34450.9
          35520.1 35482.4 35408.9 35303.5 35171.8 35021.7 34862.4 34704.7 34559.8 34438.4 35522.6 35485.3
          35412.5 35308.2 35178.1 35029.7 34872.4 34716.6 34573.5 34453.4 35535.3 35498.9 35428 35326.5
          35200.1 35056.2 34903.8 34753.3 34615.2 34499.4 35558.8 35524 35456.2 35359.1 35238.5 35101.6
          34957.1 34814.8 34684.6 34575.7 35593.1 35560.3 35496.4 35405.3 35292.3 35164.4 35030.1 34898.4
          34778.4 34678.5 35636.9 35606.4 35547.3 35463 35359 35241.7 35119.1 34999.5 34891.3 34801.6
          35687.9 35660.1 35606.1 35529.4 35435 35329.2 35219.1 35112.4 35016.5 34937.7 35743.5 35718.3
          35669.7 35600.7 35516.2 35421.9 35324.4 35230.5 35146.8 35078.6 35800.2 35777.7 35734.2 35672.8
          35597.7 35514.4 35428.8 35347 35274.7 35216.5 35854.5 35834.4 35795.7 35741.1 35674.8 35601.4
          35526.6 35455.6 35393.4 35344 35903 35885 35850.4 35801.7 35742.8 35677.9 35612.1 35550.2
          35496.4 35454.3 35942.5 35926.2 35894.8 35850.8 35797.6 35739.4 35680.7 35625.8 35578.6 35542
          35970.4 35955.2 35926.1 35885.3 35836.1 35782.5 35728.6 35678.5 35635.7 35603 35984.8 35970.2
          35942.2 35903.1 35856 35804.7 35753.2 35705.5 35665 35634.1 35480.2 35442.9 35370.4 35266.7
          35137.8 34991.8 34838.2 34687.8 34551.4 34439.2 35473.1 35435.4 35362 35256.9 35126.3 34978.1
          34822 34668.8 34529.8 34415.1 35460.2 35421.7 35346.7 35239.3 35105.4 34953.3 34792.6 34634.5
          34490.5 34371.3 35443.9 35404.4 35327.4 35217 35079.2 34922.1 34755.8 34591.4 34441.2 34316.4
          35427 35386.6 35307.8 35194.5 35052.9 34891 34719.1 34548.6 34392.1 34261.6 35413.2 35372.1
          35291.9 35176.5 35032.1 34866.8 34690.7 34515.7 34354.5 34219.5 35405.6 35364.3 35283.6 35167.6
          35022.2 34855.7 34678.2 34501.6 34338.4 34201.5 35407.1 35366.1 35286.2 35171.2 35027.3 34862.6
          34687.1 34512.5 34351.4 34215.9 35419.5 35379.6 35301.7 35189.8 35049.9 34890.2 34720.3 34551.8
          34396.5 34266.2 35443.8 35405.5 35330.9 35223.9 35090.5 34938.7 34777.9 34619 34473.2 34351.2
          35479.7 35443.6 35373.3 35272.8 35148 35006.5 34857.4 34710.8 34577.1 34465.9 35525.8 35492.3
          35427.3 35334.5 35219.7 35090.2 34954.5 34822 34702.1 34603 35580 35549.4 35490.1 35405.7
          35301.8 35185.1 35063.7 34946 34840.3 34753.9 35639.1 35611.5 35558.1 35482.4 35389.5 35285.8
          35178.6 35075.6 34983.9 34909.7 35699.7 35675.1 35627.4 35560.1 35477.8 35386.5 35292.7 35203.3
          35124.6 35061.7 35757.9 35736 35693.6 35633.9 35561.3 35481.2 35399.5 35322.2 35254.9 35201.8
          35810 35790.3 35752.5 35699.5 35635.1 35564.5 35493 35425.9 35368 35323 35852.4 35834.6
          35800.4 35752.6 35694.7 35631.6 35567.9 35508.7 35458 35419.2 35882.4 35865.9 35834.2 35789.9
          35736.6 35678.5 35620.3 35566.3 35520.6 35486 35897.9 35882 35851.6 35809.2 35758.2 35702.7
          35647.2 35595.9 35552.7 35520.1 35309.2 35266.2 35182.3 35062 34912.1 34741.6 34561.6 34384.7
          34224.3 34092.5 35300.5 35256.9 35171.8 35049.7 34897.3 34723.6 34539.9 34359 34194.4 34058.9
          35284.6 35239.9 35152.7 35027.2 34870.3 34690.9 34500.5 34312.1 34140 33997.7 35264.3 35218.3
          35128.3 34998.7 34836.1 34649.6 34450.7 34252.9 34071 33919.9 35243.2 35195.8 35103.1 34969.4
          34801.3 34607.7 34400.3 34193 34001.3 33840.9 35225.2 35176.8 35082.1 34945.3 34772.9 34574
          34360.2 34145.6 33946 33778.1 35214.2 35165.4 35069.8 34931.7 34757.6 34556.4 34339.9 34122.2
          33919.1 33747.6 35213.6 35165.1 35070.1 34933 34760.2 34560.9 34346.5 34131.1 33930.4 33760.6
          35225.5 35178.1 35085.4 34951.8 34783.8 34590.5 34383.4 34175.9 33983.3 33820.9 35251 35205.5
          35116.7 34988.9 34828.9 34645.5 34450 34255.4 34075.9 33925.3 35290 35247.1 35163.5 35043.6
          34894 34723.5 34543 34364.8 34201.7 34066.1 35340.9 35301.2 35223.8 35113.2 34975.9 34820.4
          34657 34497.2 34352.4 34233.2 35401.4 35365.1 35294.6 35194.2 35070.2 34930.7 34785.4 34644.5
          34518.3 34415.7 35467.9 35435.2 35371.9 35282 35171.5 35048.1 34920.5 34798.1 34689.8 34603
          35536.4 35507.2 35450.9 35371.2 35273.7 35165.6 35054.8 34949.5 34857.4 34784.7 35602.5 35576.6
          35526.7 35456.3 35370.8 35276.4 35180.5 35090.2 35012.2 34951.7 35661.7 35638.7 35594.3 35532
          35456.6 35373.9 35290.5 35212.7 35146.3 35095.5 35710.1 35689.4 35649.4 35593.5 35526 35452.5
          35378.7 35310.5 35252.9 35209.6 35744.4 35725.2 35688.3 35636.8 35574.8 35507.5 35440.3 35378.6
          35326.9 35288.6 35762.2 35743.8 35708.4 35659.1 35600 35535.8 35472 35413.5 35364.8 35328.9
          35071.5 35019.6 34918.1 34772.1 34589.3 34380.1 34158.2 33939.1 33739.8 33576.7 35060.3 35007.5
          34904.3 34755.5 34568.9 34354.9 34127.1 33901.5 33695.5 33526.3 35039.7 34985.4 34878.9 34725.2
          34531.7 34308.9 34070.4 33832.7 33614.2 33433.6 35013.2 34956.9 34846.4 34686.5 34484.3 34250.4
          33998.3 33745 33510.1 33314.1 34985.2 34926.8 34812.4 34646.2 34435.4 34190.2 33924.3 33655
          33402.9 33190.5 34960.6 34900.7 34783 34611.9 34394.4 34140.4 33863.7 33581.6 33315.5 33089.1
          34944.2 34883.5 34764.2 34590.7 34369.9 34111.8 33830 33541.9 33269 33035.4 34940 34879.5
          34760.6 34587.9 34368.3 34112 33832.5 33547.4 33277.4 33046.2 34950.8 34891.5 34775.3 34606.7
          34393.1 34144.7 33875.2 33601.8 33344.4 33125.2 34978 34921.1 34809.6 34648.3 34444.9 34209.7
          33956.6 33702 33464.8 33264.7 35021.5 34967.7 34862.7 34711.5 34521.6 34303.8 34071.5 33840.4
          33627.9 33451 35079.7 35029.8 34932.7 34793.3 34619.4 34421.6 34212.6 34007.5 33821.5 33669
          35149.7 35104.2 35015.8 34889.5 34732.9 34556.2 34371.7 34192.7 34033 33904.3 35227.5 35186.6
          35107.3 34994.5 34855.6 34700.1 34539.3 34385.5 34250.3 34143.4 35308.1 35271.8 35201.4 35101.8
          34979.9 34844.6 34706.1 34575.1 34461.7 34373.9 35386.4 35354.3 35292.2 35204.8 35098.4 34981.1
          34862.3 34751.2 34656.4 34584.4 35456.9 35428.4 35373.6 35296.6 35203.4 35101.5 34999.1 34904.3
          34824.6 34765.2 35514.6 35489.1 35440 35371.3 35288.6 35198.6 35108.8 35026.5 34958 34908
          35555.6 35532.1 35487 35424 35348.4 35266.6 35185.3 35111.4 35050.5 35006.7 35576.8 35554.4
          35511.3 35451.2 35379.3 35301.6 35224.7 35155 35097.8 35057 34767.1 34702.8 34576.9 34394.9
          34165.7 33901.6 33619.4 33339 33083.2 32874.2 34752.3 34686.8 34558.2 34372.1 34137 33865.3
          33573.5 33282.4 33015.1 32795.8 34725.1 34657.2 34523.9 34330.2 34084.4 33798.6 33489.4 33177.9
          32889.2 32649.8 34689.7 34618.9 34479.5 34276.2 34016.9 33713.1 33381.4 33043.3 32725.6 32458.5
          34651.9 34578.1 34432.5 34219.5 33946.5 33624.4 33269.4 32903.3 32554.3 32256 34617.8 34541.5
          34390.9 34170.1 33886.1 33549.4 33175.7 32786.8 32411.3 32085.3 34593.4 34515.8 34362.4 34137.3
          33847.5 33503.4 33120.4 32720.1 32331.1 31990 34583.9 34506.2 34352.8 34128 33839 33496.7
          33116.5 32720 32335.6 31998.5 34592.7 34516.4 34366.1 34146.4 33865 33533.5 33168 32790.1
          32427.3 32112.3 34621.7 34548.2 34403.8 34193.4 33925.6 33612.6 33271.2 32922.8 32593.6 32312.5
          34670.9 34601.5 34465.3 34267.9 34018.3 33729.3 33418.1 33105.5 32815.8 32573.6 34738.7 34674.2
          34548.1 34366.3 34138.1 33876.6 33598.7 33324.4 33075.3 32872.1 34821.6 34762.8 34648.1 34483.5
          34278.6 34046.1 33802.4 33566 33355.8 33188.6 34914.8 34862 34759.3 34612.7 34431.6 34228.2
          34017.7 33816.9 33641.9 33506.3 35012.4 34965.5 34874.7 34745.9 34587.8 34412 34232.3 34063.5
          33919.1 33810.1 35107.6 35066.4 34986.7 34874.2 34737.2 34586.3 34433.7 34292.3 34173.5 34085.9
          35193.8 35157.4 35087.5 34989.2 34870.2 34740.2 34610.1 34491 34392.4 34321.5 35264.6 35232.2
          35170 35082.9 34978.1 34864.4 34751.6 34649.2 34565.7 34506.9 35314.9 35285.3 35228.4 35149.1
          35054 34951.4 34850.2 34759.1 34685.6 34634.6 35341.1 35312.8 35258.7 35183.4 35093.2 34996.2
          34900.9 34815.4 34746.7 34699.6 34396.6 34316.3 34158.4 33929 33637.9 33299.8 32935.3 32570.3
          32235.7 31962.8 34377.1 34294.9 34133.1 33897.3 33597.1 33246.9 32866.9 32483.8 32129.6 31838.7
          34341 34255.3 34086.3 33839 33522.1 33149.3 32740.5 32322.9 31931.1 31604.5 34293.8 34203.7
          34025.5 33763.5 33425.4 33023.4 32576.8 32112.9 31669 31290.5 34242.6 34148.1 33960.5 33683.5
          33323.5 32891.6 32405.2 31891.3 31388.6 30948.5 34195.6 34097.3 33901.9 33612.5 33234.8 32778.5
          32259.7 31703.9 31149.6 30651.3 34160.3 34059.6 33859.6 33563 33175.5 32706.2 32170.9 31593.7
          31012 30480.2 34143 34041.9 33841.1 33544 33156.5 32688.8 32157.1 31586.3 31012.9 30489.9
          34148.4 34048.9 33851.5 33560.4 33182.8 32730.5 32221.5 31682.1 31149 30671.5 34179 34082.8
          33892.6 33613.5 33254.2 32828.2 32355.7 31864.5 31390.8 30978.3 34234.9 34143.7 33964 33701.7
          33366.8 32974.6 32546.7 32111.8 31704.2 31361.1 34314.4 34229.6 34063 33821.1 33515.1 33161.1
          32781.5 32404.6 32061.8 31783.6 34413.7 34336.2 34184.5 33965.7 33691.2 33377.7 33047.3 32726.4
          32442.8 32221.2 34526.8 34457.3 34321.6 34127.2 33885.4 33612.7 33329.7 33060.6 32829.1 32654.5
          34646.4 34584.9 34465.4 34295.2 34085.4 33851.6 33612.6 33389.4 33202 33065.2 34764 34710.1
          34605.9 34458.3 34278 34079.2 33878.7 33694.5 33542.9 33435.5 34870.9 34823.8 34732.9 34605
          34449.9 34280.6 34111.9 33959 33835.3 33750.1 34959 34917.4 34837.2 34724.9 34589.6 34443.2
          34298.7 34169.2 34065.9 33996.3 35021.8 34983.9 34911.2 34809.6 34688 34557.1 34428.8 34314.7
          34224.7 34165.2 35054.5 35018.5 34949.5 34853.5 34738.8 34615.7 34495.5 34389.1 34305.6 34251.1
          33962 33861.7 33663.7 33374.2 33003.8 32569.5 32096.2 31617.9 31176.6 30817.2 33936.4 33833.2
          33629.4 33330.4 32946.1 32492.4 31994 31485.3 31010.9 30620.3 33888.8 33780.6 33566.1 33249.7
          32839.5 32349.8 31803.7 31236.3 30695.9 30241.2 33826.3 33711.6 33483.5 33144.7 32701.2 32164.3
          31554.7 30906.1 30270.4 29717.5 33758 33636.6 33394.4 33032.5 32554.5 31968.5 31290.7 30551.7
          29803.1 29123.7 33694 33567 33312.9 32931.8 32425.5 31799.1 31064.9 30248.2 29395.4 28586.1
          33644.1 33513.4 33251.7 32859 32336.5 31688.5 30925.5 30069.1 29159.6 28270 33616.3 33484.4
          33220.7 32825.7 32302 31655.3 30898.2 30053.8 29162.9 28297.1 33616.3 33485.9 33225.7 32837.8
          32326.8 31702.3 30981.5 30193.1 29382.4 28620.4 33647.5 33521 33269.4 32896.4 32409.5 31822.3
          31157.6 30450.2 29749.5 29120.9 33710.6 33590.2 33351.5 32999.8 32545.2 32005 31406.3 30788.4
          30201.7 29702.9 33803.9 33691.4 33469.3 33144.2 32728 32240.7 31712 31182.6 30701 30314.4
          33923 33820 33617.5 33322.9 32949.7 32518.9 32061 31615.5 31226 30930.4 34060.8 33968.4
          33787.4 33526 33198.2 32825.4 32436.7 32068.1 31756.9 31532.2 34208.1 34126.7 33967.8 33740
          33457.5 33140.7 32816.3 32515.6 32268.9 32098.1 34354.1 34283.2 34145.5 33949.6 33709.1 33442.9
          33174.8 32931 32735.5 32604.8 34487.6 34426 34307 34138.8 33934.4 33711 33489 33290.1
          33133.6 33032.1 34598.1 34544 34440 34293.9 34117.8 33927.1 33739.9 33574.2 33445.7 33364.2
          34676.9 34628.1 34534.4 34403.6 34246.8 34078.3 33914.2 33770.2 33659.6 33590.8 34717.8 34671.8
          34583.4 34460.3 34313.3 34156 34003.3 33870 33768.2 33705.5 33466.7 33342.3 33095.8 32732.8
          32264 31708.2 31095.2 30468.9 29886.9 29413.6 33433.5 33305.1 33050.1 32673.1 32183.1 31597
          30943.5 30266.9 29628.8 29102.5 33371.7 33236.1 32965.5 32562.5 32033.1 31390 30658.3 29881.9
          29128.7 28488.5 33290.1 33145.2 32854.6 32418.2 31837.1 31118.3 30279.7 29360.5 28432 27604
          33200.4 33045.7 32734.3 32263 31628.1 30828.9 29873.1 28788.4 27638.8 26543.9 33115.2 32952
          32622.9 32122.3 31442.9 30577.6 29523.7 28292.8 26926.6 25524.7 33046.6 32877.7 32536.8 32018
          31313 30412.7 29310.4 28007.3 26521.8 24910.9 33004.7 32833.4 32488.3 31964.5 31256 30357.4
          29266.8 27991.1 26553.5 25017.2 32996.7 32826.5 32484.5 31968.1 31275.6 30409 29377.8 28205.3
          26936.6 25657.3 33027 32861 32528.5 32029.7 31367.7 30552.6 29607 28571.7 27511.9 26522.1
          33097.2 32938.2 32620.9 32147.9 31526.8 30774.8 29924.4 29030.3 28169.3 27431.1 33205.8 33056.5
          32759.6 32319.9 31748.5 31067.4 30316 29555.5 28865.9 28326.2 33348.1 33210.9 32939.2 32539.6
          32025.9 31423.4 30773.9 30139.2 29593.9 29202.6 33515.7 33392.6 33149.7 32795.4 32345.3 31826.2
          31279.6 30762.1 30336.9 30052.4 33697.2 33588.9 33376.5 33069.4 32684.4 32248 31798.6 31384.7
          31056.1 30847.4 33878.5 33784.8 33602.1 33340.3 33016.4 32655.4 32291 31963 31709 31553.7
          34045.1 33964.5 33808.1 33586.1 33314.8 33016.9 32721.4 32460 32261.3 32143.1 34183.5 34113.4
          33978.2 33787.8 33557.4 33307.8 33063.4 32850.1 32690.1 32596.8 34282.3 34219.7 34099.2 33930.4
          33727.9 33510.4 33299.6 33117.3 32981.6 32903.6 34333.8 34274.9 34161.9 34004.2 33815.7 33614.3
          33420 33252.7 33128.8 33058.1 32916.3 32763.9 32460.7 32010.9 31424.2 30719.7 29932.2 29117.8
          28355 27736.5 32874 32716.1 32401 31930.9 31312.6 30561.7 29709.9 28813.2 27957.5 27251.8
          32795.2 32627.2 32289.9 31782.1 31104.5 30264.8 29286.3 28221.6 27166.9 26263.5 32690.8 32509.6
          32143.7 31586.8 30830.8 29870.5 28712.8 27396.1 26018.1 24758.3 32575.1 32380.1 31984.2 31375.7
          30536.8 29446.2 28085.9 26461.4 24641 22808.9 32464 32256.9 31835 31182.8 30275.3 29077.5
          27546.6 25642.8 23357.2 20764.6 32372.4 32156.7 31717.2 31037.4 30090.6 28838.9 27231.7 25204.9
          22673.4 19496.6 32312.5 32092.5 31645.3 30956.2 30002.6 28754.7 27175.2 25218.7 22824 19905
          32293.3 32073.3 31627.5 30944.8 30010.1 28807.7 27325.8 25563.2 23534.5 21290 32320.5 32104.4
          31667.8 31003.6 30104.4 28969.2 27612.7 26078.2 24448.3 22850.8 32396.9 32188.2 31768 31132.5
          30280.8 29223.7 27996 26674.4 25386.1 24285.2 32521.9 32324.4 31928 31332 30540.8 29573.2
          28477.3 27347.7 26333.2 25589.5 32690.6 32508.2 32143.5 31598.9 30883.6 30023.2 29072.5 28131.2
          27343.4 26843.5 32893.5 32729.5 32403.2 31920.2 31294.7 30557.1 29764.6 29010.3 28413.8 28070.2
          33116 32972.3 32688.1 32272.1 31741.9 31130.3 30492 29905.5 29460.1 29217.5 33340.3 33216.9
          32974.4 32623.7 32184.1 31688.2 31184.1 30734 30401.1 30225.1 33547.6 33442.4 33237.4 32944.1
          32582.4 32182.4 31784.7 31437.1 31184.3 31052.5 33720.1 33629.8 33454.7 33206.9 32905.5 32577.5
          32257 31981.1 31782.3 31679.3 33843.5 33763.5 33609.3 33392.6 33131.6 32851 32580.1 32349.1
          32183.5 32098 33907.8 33833.1 33689.4 33488.4 33247.7 32990.5 32743.7 32534.2 32384.5 32307.1
          32318.4 32134.8 31767.9 31219.6 30496.7 29617.3 28619.7 27573.9 26586.7 25790.7 32265.7 32074.7
          31691.5 31114.7 30346.4 29397.7 28300.5 27123.4 25986 25052.9 32167.3 31962.5 31548.9 30919
          30064.1 28980.1 27680.9 26224.3 24747.9 23484.6 32036.5 31813.8 31360.4 30660.3 29688.9 28416.1
          26818.6 24914.8 22837.9 20913.5 31890.8 31649 31153.6 30379 29282.5 27800.1 25849.2 23357.4
          20363.2 17203.9 31749.5 31490.7 30958.6 30120.7 28920.4 27265.8 25015 21970 17919.9 12796.3
          31630.5 31359.4 30801.7 29923.3 28665.6 26933.7 24578 21363.7 16881.9 10121.8 31548.8 31270.6
          30699.7 29805.3 28536.3 26815.8 24531 21510.9 17449.2 11625.3 31514.9 31234.7 30661.5 29769.4
          28519.6 26861.1 24734.7 22077 18807.3 14778 31536.4 31258.4 30691.5 29814.7 28599.5 27018.1
          25059.8 22759.3 20224.5 17626.5 31617.6 31346.4 30794.4 29944.2 28774.9 27274 25463.3 23446.8
          21463 19839 31759.5 31500.3 30974 30166.3 29062.3 27659.9 25999.3 24221.7 22640.8 21674.2
          31957.7 31716.6 31228.8 30484.7 29477.6 28217.1 26759.5 25261.2 24038.3 23475.1 32201.1 31983.9
          31546.8 30886.7 30007.4 28933.3 27735.1 26567 25682.6 25322.5 32472.1 32282.3 31903.3 31338.7
          30602.1 29728.5 28792.5 27924.8 27301 27052.6 32747.6 32585.9 32265.7 31796 31196.6 30506.8
          29794.5 29160.2 28717.4 28537.7 33003.3 32867.2 32600 32213.8 31731.5 31191 30649.7 30181.1
          29858.4 29723.1 33216.7 33101.3 32876.5 32556 32162.8 31731.7 31309.8 30951.4 30705.5 30598.9
          33369.5 33268.5 33072.9 32796.9 32462.8 32102.2 31754.7 31462.6 31262.2 31172.9 33449.1 33355.4
          33174.6 32920.9 32616.1 32289.8 31977.7 31716.8 31537.5 31456.4 31682.2 31465.4 31030.1 30375
          29502.6 28427.3 27189.2 25872.1 24618.6 23616.5 31618.1 31391.6 30934.8 30241.6 29306.4 28131.9
          26745.4 25225.8 23737.5 22531.5 31498.1 31253.6 30756.7 29991.4 28934.7 27561.7 25862.9 23888.4
          21831.7 20099.5 31338.2 31070.1 30520.1 29658.3 28434.5 26774.3 24586 21814.9 18620.6 15687.5
          31159.3 30865.8 30258.9 29293.3 27886.1 25894 23083.5 19133.7 13872.6 8180.18 30984.4 30668.1
          30010.9 28956.3 27396.3 25129.4 21774.6 16618.1 8534.27 -2890.42 30834.9 30501.3 29808.1 28696.4
          27056.2 24689.7 21237.8 16041.2 7819.85 -7134.84 30728.1 30383.4 29669.3 28531.2 26873.4 24537.8
          21266.7 16626.8 9772.05 -1791.41 30676.7 30326.4 29602.9 28457.9 26812.9 24554.3 21530.1 17548.9
          12337.8 5254.65 30689.9 30338.6 29614.2 28472.8 26847 24652.5 21812 18318.7 14339 10199.2
          30774.5 30427.3 29711.8 28585.2 26983.5 24831.8 22083.5 18838.9 15591.8 13311.3 30933.4 30597.8
          29906.1 28817.3 27269.4 25188.7 22530.9 19427.1 16577.1 15616.8 31163.6 30848.9 30202 29188
          27757.1 25855.5 23470.8 20775.4 18499.9 18236.6 31453 31168.5 30587.4 29687 28440.2 26834.5
          24921.9 22933.5 21453.9 21283.1 31779.5 31531.9 31030.6 30266.9 29237.8 27966.2 26540.4 25175.5
          24244 24088.5 32114.5 31905.3 31486.4 30860.8 30042.5 29072.7 28043.2 27117.7 26512.7 26376.4
          32426.7 32252.7 31908.4 31404 30762.7 30030.3 29285.9 28644.2 28230.2 28114.7 32687.6 32542.1
          32257.2 31847 31337.8 30773.2 30217.3 29750.1 29447.8 29349.7 32874.3 32748.6 32504.3 32157.1
          31733.8 31274.2 30830.9 30463.4 30223.5 30137.4 32971.5 32855.8 32632 32316.2 31934.8 31525.3
          31134.3 30812.1 30600.2 30520.2 31018 30767.2 30262.1 29497.5 28470.5 27190.3 25695.6 24082.8
          22533.3 21304.3 30941.8 30679 30147 29333.8 28224.9 26811.2 25108.9 23201.5 21302.7 19786.7
          30799.2 30513.9 29931.1 29025.2 27755.5 26067.7 23910.3 21297.5 18473.8 16147.1 30608.8 30293.7
          29643.2 28611.4 27115 25013.5 22089.5 18087.2 13059.6 8483.19 30395 30047.6 29323.7 28154
          26401.4 23795.8 19792.4 13321.8 2914.85 -9108.7 30184.9 29807.9 29018 27728.4 25758.9 22721.5
          17681.6 8046.78 -13877 -54358 30003.4 29603.2 28764.6 27396.8 25319.7 22170.6 17177.3 8609.39
          -7258.59 -37409.1 29870.3 29453.8 28583.3 27173.7 25067.7 21983.4 17410.9 10411.6 -826.843 -21500.6
          29800.3 29372.7 28481.4 27047 24933.7 21926.3 17706.3 11840.6 3769.58 -7688.33 29804.4 29370.2
          28465 27009.8 24873.4 21863 17741.3 12347.3 5966.51 -296.877 29891.9 29456.8 28547.8 27079.8
          24908.3 21811.6 17503.5 11835.1 5727.15 3002.63 30068.6 29642.5 28749.9 27301.2 25136.6 21988.2
          17435.4 11025.6 3727.05 4751.56 30333.4 29930 29086 27718.8 25682.8 22738 18518.9 12667.7
          6284.76 8805.17 30673.2 30307.4 29546.9 28330.2 26559.4 24104.9 20862.9 17017.1 13889.2 14823.6
          31061.9 30744.5 30091.7 29069.1 27633.1 25755.6 23498.4 21182.4 19627.1 19880.5 31463.6 31197.8
          30658.7 29835.5 28724.1 27353.6 25835 24430.8 23569.1 23593.9 31839 31620.9 31184.9 30535.5
          29691.1 28701.2 27671.1 26779 26244.4 26196.6 32152.9 31973.1 31618.6 31102.3 30451.7 29718.9
          28989.4 28380.6 28012.2 27943.9 32377.3 32224.1 31924.8 31496.1 30968.5 30390.5 29831.2 29372.8
          29089.9 29017.6 32494.1 32354.2 32082.5 31697 31228.4 30722.6 30239.7 29846.8 29600.8 29528.7
          30335.4 30051.3 29478.2 28607.6 27431.9 25954.9 24212.7 22310.2 20463.3 18998.5 30247 29948.7
          29343.6 28414.8 27139.8 25497.7 23492.2 21203.6 18883.8 17036.7 30081.6 29756.6 29090.7 28049.9
          26577.7 24591 21990 18725.8 15039.6 11975.2 29860.6 29499.8 28752.2 27557.7 25802.3 23278.1
          19612.3 14201.8 6548.65 -1107.94 29612.3 29212.4 28374.9 27009 24924.9 21711.7 16381.3 6236.02
          -16283.8 -53648.8 29368.1 28931.5 28011.6 26492.9 24121.3 20278.6 13056.8 -6520.41 -114928 -499510
          29156.4 28689.8 27706.3 26084 23567.5 19594.5 12749.8 -1196.25 -35855.8 -120401 28999.4 28509.9
          27480.3 25792.9 23220.8 19329.5 13245.1 3119.62 -14877.7 -48910 28913.3 28405.9 27339.4 25598.5
          22974.5 19112.9 13431.7 5047.65 -7105.96 -24046 28911 28389.3 27290.2 25489.2 22763.1 18739.9
          12848 4427.13 -6296.39 -15350.2 29004 28474.1 27351.4 25491.5 22619.6 18225.9 11365.8 533.221
          -14170.4 -15375 29201.2 28675.3 27554.8 25676.5 22708.2 17944.9 9691.31 -6693.24 -42144.3 -20195
          29503.4 29000.8 27928.6 26127.5 23273.4 18682 10707.9 -5286.51 -41210.2 -12106.8 29897.6 29439.8
          28469.1 26858.8 24371.9 20588.5 14817.7 6303.32 -2997.18 3526.48 30353.1 29956.9 29127.4 27785.9
          25805.9 23025.2 19345.4 15112.5 12084.3 13756.4 30826.3 30497.4 29820.8 28760.5 27274 25346.3
          23080.3 20875.4 19585.6 20050.7 31269.2 31002.9 30464.5 29647.5 28556.4 27234.5 25812.7 24562.4
          23871.1 23981.5 31639.1 31422.9 30993 30358.6 29545.2 28610.6 27664.9 26877.6 26435.9 26430.6
          31903.2 31721.2 31364 30847.9 30205.6 29494.1 28801 28238.4 27911.7 27867.5 32040.4 31875.6
          31554.4 31095.8 30534 29923.5 29339.7 28870 28590.2 28534.3 29642.1 29326.5 28689.4 27720.8
          26411 24761.2 22806.7 20658 18551.9 16859.6 29541.7 29209.8 28536.3 27502.1 26080.7 24246.1
          21996.8 19413.8 16769.1 14627.1 29353.9 28991.4 28248.7 27087.7 25444.4 23224.1 20311 16641.1
          12455.7 8850.01 29103.3 28699.8 27863.6 26527.6 24564.7 21744.5 17661.1 11676.7 3225.03 -6088.78
          28823 28374 27433.7 25900.5 23563.7 19978.1 14127.2 3484.32 -18390.8 -64774.8 28548.7 28056.3
          27018.4 25304 22629.1 18330.2 10555.3 -7585.26 -73391.6 -505555 28312.6 27783.6 26666.5 24818.3
          21939.2 17364.4 9365.51 -8031.13 -67829.4 -479655 28139.2 27580.5 26401 24456.1 21462.9 16865.7
          9485.94 -3507.57 -30066.5 -97471.9 28046 27461.7 26227 24190.7 21071.5 16365.8 9174.81 -2062.85
          -19654.6 -45164.9 28046.3 27439.6 26150.7 24006 20676.7 15560.1 7557 -5150.69 -23869.9 -37963.1
          28153 27529.9 26194.4 23933.3 20309.7 14395.2 3972.44 -16914.4 -62922 -53471.2 28377.1 27751.8
          26399.4 24066.2 20186.6 13333.3 -1358.23 -50826.6 -386285 -101477 28721.4 28118.2 26807.9 24529.4
          20694.7 13822.4 -1125.1 -53730.8 -477798 -68578.3 29172.7 28620.6 27426.3 25368.4 21975.9 16224.2
          5734.12 -15137.8 -54216.2 -16801 29696.8 29219.9 28202.9 26500.4 23841.9 19774.6 13694.7 5507.95
          -1296.22 5045.47 30242.2 29849.7 29029.8 27709.3 25777.7 23118.5 19748.9 16221.8 14239.1 15763.5
          30752.3 30438.4 29796.5 28802.9 27436.4 25716.8 23787.9 22048 21172.8 21591.8 31177.3 30926
          30422.2 29668.7 28684.2 27527.4 26332.3 25335 24821.6 24922.6 31480 31271.1 30858.6 30257.4
          29500.6 28651.9 27818 27145.6 26779.2 26777.8 31637 31449.1 31081.5 30553.4 29901.6 29188
          28503.3 27957.5 27648 27615.2 28943.6 28597.7 27900.4 26842.2 25414.7 23620.8 21497.9 19158.5
          16843.6 14936.9 28830.9 28466.9 27729.3 26599.8 25053.5 23067.1 20642.1 17862 14998.3 12614
          28620.7 28222.4 27408.4 26141.2 24359.3 21973.7 18878.9 15025.1 10656.8 6806.7 28341.9 27897.6
          26979.8 25522.1 23401.8 20403.2 16162.7 10153 2031.25 -6527.95 28032.9 27537.4 26503.6 24829.6
          22312.3 18542.1 12654 2771.93 -14722.5 -41638.6 27735.2 27190.6 26046.1 24168.7 21281.1 16778.9
          9174.94 -5828.66 -42315.7 -140696 27485.5 26898.7 25661.6 23622.9 20475.1 15570.8 7390.87 -8218.81
          -44402 -143156 27310.3 26688.3 25374.8 23208 19874.7 14768.9 6644.49 -7294.41 -33852.8 -90476
          27226.7 26573.7 25189.9 22896.2 19354.9 13947.2 5523.15 -8059.61 -30401.4 -64787.2 27247.1 26565.8
          25111.1 22667.7 18818.4 12765.4 2937.4 -13768.3 -42148.4 -73763.7 27383.6 26679.9 25160.4 22553
          18288.2 11123.3 -2045.02 -30581 -106542 -153210 27647 26936.1 25382.6 22651.6 17982.3 9442.55
          -9547.68 -76390.8 -528419 -527651 28040.7 27350.1 25828.4 23109.3 18330.2 9276.52 -10767.1 -65470.4
          -209398 -115955 28551.4 27916.4 26518 24017.8 19600.1 11085.4 -8460.16 -65722 -214685 -45791
          29142.1 28594.7 27407.3 25350.7 21939 16158.3 6021.76 -10932.5 -25785.4 -5725.14 29754.9 29307.8
          28360.8 26795.3 24403.8 20883.6 15989.5 10335 7542.72 11242.6 30325.9 29972 29241.3 28089.3
          26459.7 24325.4 21813.1 19468.1 18446.6 19358.2 30799.7 30519.6 29954.3 29098.8 27961.7 26595.6
          25152.1 23940.7 23376.8 23619.2 31136.2 30905.5 30448.2 29776.9 28923.2 27954.8 26994.5 26223.5
          25828.7 25877.1 31310.2 31104.1 30699.4 30115.1 29389.4 28589.7 27819.7 27209.9 26878.6 26870.5
          28243.8 27867.5 27110.5 25966.3 24431.1 22514.3 20258.1 17773.5 15288.6 13169.5 28117.7 27721
          26919.4 25698.1 24038.8 21927.9 19376.2 16465.6 13440.2 10814 27883.6 27448.3 26561.9 25191.6
          23286.3 20774.9 17573.3 13632.2 9117.05 4865.72 27576.1 27089.1 26087.4 24510.6 22252 19128.6
          14824 8812.23 418.415 -9936.64 27241.3 26697 25566.6 23755 21080 17184 11285.9 1413.66
          -18312.5 -66662.2 26929 26330.4 25078.2 23044 19972.2 15319.4 7688.9 -7960.07 -63356.8 -510965
          26681.2 26037.4 24684.5 22471.1 19100.4 13969.3 5687.07 -9641.7 -45978.8 -165204 26525.9 25845.7
          24411.2 22052.5 18445.2 12968.7 4339.96 -10480.3 -40629 -130162 26477.7 25766.3 24258 21756.1
          17886.8 11950.4 2570.46 -13197.9 -42200.7 -99469.1 26544.9 25805.3 24223.2 21556.2 17328.7 10608.6
          -561.121 -20900.1 -64087.7 -167941 26735.4 25973.6 24323.2 21475.6 16784.1 8863.41 -5576.27 -36265.4
          -128311 -535274 27056.9 26287.9 24598.4 21601.1 16414.9 6913.07 -12709.7 -60612.3 -203841 -542124
          27511 26762.9 25099.7 22071.2 16547.1 5320.69 -22497.7 -106417 -257127 -144120 28083.2 27394.5
          25858.6 23027.9 17647 5089.98 -43125.1 -448562 -521189 -79328.5 28734.8 28142.8 26843.6 24534.7
          20491.1 12815.6 -4161.29 -48269.8 -59398.1 -15211.8 29404 28923.3 27896.1 26167.2 23435.3 19162.4
          12576.5 3757.17 1346.68 7919.8 30023.1 29645.2 28860.3 27608.5 25802.8 23363.7 20363.9 17451.1
          16469.4 17880.2 30534 30236.8 29635 28717.9 27485.6 25982.7 24367 23002.8 22431.9 22792.4
          30895.3 30652 30168.5 29455.9 28544.5 27503.1 26464.1 25632 25225.4 25309.8 31081.7 30865
          30438.9 29822 29053.1 28202.6 27381.9 26734.5 26391.7 26399.6 27548 27138.6 26317.4 25082
          23436.8 21402.5 19031.3 16432.8 13811 11484.2 27405.9 26972.8 26100.1 24778.3 23000.2 20770.3
          18119.2 15136.2 12036.7 9242.49 27143.9 26665.5 25694.5 24204.8 22162.4 19529.8 16272.3 12389.3
          8049.73 3899.66 26804.1 26265.1 25160.4 23437 21013.3 17768.1 13507.6 7925.77 762.969 -7250.78
          26444.3 25839.2 24586.8 22598.4 19724.5 15709.1 10047.8 1624.11 -11804.5 -32461.9 26126.1 25461.7
          24075.6 21843.4 18543.1 13763.7 6596.2 -5462.96 -30345.7 -95015.1 25899.6 25191 23705.5 21292.2
          17677.3 12353.6 4258.84 -9182.01 -34717.9 -89925.5 25792.5 25053.8 23498.8 20953.6 17097.6 11337.1
          2472.15 -12241.2 -39912.5 -101564 25813.1 25052.3 23441.1 20774.4 16662.9 10362.2 313.943 -17332.9
          -54438.5 -153814 25960.9 25181.8 23516.5 20712.6 16267.1 9155.24 -3013.85 -27860.2 -106635 -535235
          26235.7 25444 23730.9 20778.9 15918 7685.23 -7516.82 -40922.4 -145730 -553625 26638.6 25848.3
          24114.8 21045.1 15741.4 6010.32 -14256.3 -64543.6 -210567 -230681 27166.4 26404.1 24711.9 21635.6
          16022.6 4505.64 -25330.4 -130873 -546845 -138532 27801.9 27104.4 25550.6 22691.6 17255.2 4473.07
          -45840.1 -491521 -442068 -71070.1 28505.4 27908 26598.9 24276.4 20215.1 12504.7 -4600.56 -49183.1
          -51568.3 -13461.5 29215.1 28731.2 27698.5 25963.5 23228.4 18962.1 12415.9 3784.09 2201.58 8208.19
          29864.3 29484.5 28696.2 27441.1 25634.8 23202.5 20227.1 17376.2 16505.5 17838.2 30396.4 30097.9
          29493.6 28573.9 27340.3 25839.6 24232.4 22884.7 22331.4 22674.9 30771.2 30526.7 30041.1 29326
          28412.4 27370.3 26332.5 25503.5 25098.5 25177.2 30964.1 30746.3 30318.2 29698.7 28927.2 28074.7
          27252.8 26604.7 26260.5 26265.3 26867 26419.8 25524.2 24182.8 22410 20242.6 17748.8 15038
          12280.9 9724.16 26705.3 26228.4 25269.4 23823.4 21897.2 19520.9 16757.2 13708.4 10552.6 7590.21