<?xml version="1.0"?>
<VTKFile type="UnstructuredGrid" version="0.1" byte_order="LittleEndian">
  <UnstructuredGrid>
    <Piece NumberOfCells="3800" NumberOfPoints="4620">
      <CellData Scalars="p (Pa)">
        <DataArray type="Float32" Name="p (Pa)" NumberOfComponents="1" format="ascii">
          2273.17 -1058.1 -4401.61 -7334.04 -8042.61 -3221.03 2168.99 6254.04 8841.82 10080.8 -137.094 -3624.57
          -7099.93 -10436.5 -12059.1 -5131.35 1228.83 5660.34 8377.99 9664.55 -5521.8 -9315.5 -12439.9 -14340.7
          -13028.3 -6392.2 43.1195 4672.78 7537.39 8896.68 -15456.9 -20498 -23574.8 -24264.2 -19315.3 -9993.97
          -2122.32 3203.71 6399.03 7896.74 -33141.9 -43109.3 -47997.2 -50941.1 -38134.7 -17950.6 -5555.99 1393.47
          5194.69 6912.5 -64327.9 -93000.7 -104425 -128073 -86798.4 -29830.6 -9074.2 -29.1139 4419.35 6353.65
          -121264 -232072 -225865 -159148 -66391.8 -26398.9 -8593.83 151.623 4655.47 6635.39 -261597 -538750
          -253859 -108138 -48042.7 -20155.7 -5945.39 1782.97 5980.67 7863.14 -558390 -308646 -124797 -64317.4
          -31301 -12714.8 -1859.06 4578.74 8245.2 9923.95 -538850 -165397 -63340.7 -32743.3 -15903.6 -4425.79
          3258.15 8225.25 11198.2 12593 -507869 -90000.1 -30405.5 -12907.4 -3324.38 3618.31 8715.42 12267.9
          14503.2 15580.9 -77724 -27353.9 -8627.11 372.403 6088.66 10411.1 13750 16197.5 17798.3 18588.2
          -15113.3 -3259.52 4402.91 9388.83 12975.9 15787.3 18015.6 19694.9 20819.9 21383.9 4175.61 8807.63
          12678.6 15675.6 18031.7 19937.1 21469.8 22640.1 23433.9 23835.2 13695.5 16023.4 18247.7 20163.6
          21769.8 23106.5 24194.6 25031 25601.3 25890.8 19432 20744.3 22121.5 23402.6 24533.2 25500.4
          26297.4 26913.5 27334.8 27548.9 23135.7 23927.3 24828.3 25721.3 26545.2 27268.9 27873.7 28344
          28666.4 28830.4 25526.2 26038.2 26665.2 27321.4 27950.5 28516.8 28996.6 29372.4 29630.8 29762.4
          26965.2 27331.3 27807.6 28327.8 28841.7 29313.6 29718.2 30037 30257 30369.2 27642.8 27946.3
          28355.7 28813.9 29274.3 29701.9 30071 30363.1 30565 30668 -1018.69 -6165.38 -12984.4 -22158.6
          -30151.1 -17191.6 -6060.53 809.499 4666.62 6404.94 -3607.86 -9013.26 -16725.2 -30134.7 -55483 -23144.5
          -7662.21 73.4705 4124.16 5913.61 -9320.97 -14800.1 -21751.9 -30198 -34886.5 -19764 -7923.3 -781.773
          3213.51 5024.44 -19941.7 -26149.9 -33919.2 -42096.7 -38071.2 -21602.7 -9451.71 -2130.39 1991.8 3885.19
          -39163.8 -49266.6 -67399.6 -107642 -87880.1 -34038.6 -13198.6 -3895.16 767.655 2858.33 -73532.7 -101008
          -183501 -535525 -470662 -67842.2 -17650.9 -4933.97 349.137 2621.16 -132325 -245631 -593419 -539363
          -124429 -37764.3 -12997.9 -3077.75 1705.64 3821.05 -246712 -533940 -460565 -140832 -51503.4 -20834
          -6855.46 455.964 4420.36 6229.34 -539160 -537488 -143181 -56115.1 -25155.9 -9650.91 -690.429 4713.65
          7865.46 9340.4 -526582 -140006 -52678.5 -24123.9 -9750.84 -765.852 5206.7 9146.96 11564.9 12721.6
          -109026 -46311.9 -19758.2 -6849.43 1043.89 6582.47 10590.2 13401.3 15194.7 16069.7 -26882.4 -12563.8
          -2359.08 4295.45 8992.94 12546.4 15258.4 17240.2 18540.8 19185.6 -1510.75 3491.33 8220.47 11973.1
          14924.9 17284.7 19149.9 20549 21484.9 21954.1 10242.7 12600.6 15151.2 17436.6 19378 20996.4
          22307 23306.7 23983.3 24325 17074.7 18390.3 19920.2 21400.3 22728.5 23872.2 24815.8 25543.8
          26040.2 26291.9 21501.4 22303.8 23288.2 24294.5 25236.1 26069 26767 27310.4 27682.9 27872.3
          24480.5 24999.3 25668.7 26384.4 27077.7 27705.4 28239 28657.8 28946.2 29093.1 26458.8 26815.7
          27299 27836.1 28371.7 28866.6 29292.8 29629.7 29862.7 29981.6 27673.1 27941.3 28319.9 28753.5
          29195.8 29610.9 29972 30259.4 30458.7 30560.6 28251.6 28480.5 28811.8 29197.9 29596.7 29974.4
          30304.9 30568.7 30752.1 30846 -4323.67 -11793.1 -23941.5 -47028.6 -87357.7 -40741 -16766.2 -5486.6
          43.4541 2388.13 -7198.81 -15223.6 -30463.8 -79033.3 -385026 -68599.7 -20566.1 -6639.94 -720.63 1701.67
          -13489.2 -21264.6 -33781.1 -55834 -88186.5 -41645.1 -18429.1 -7433.14 -1952.53 433.408 -25606.4 -33092
          -44073.1 -56049.3 -55511.9 -33947.6 -18022.2 -8809.27 -3697.86 -1286.03 -49644.8 -58019.5 -72859.3 -83759.9
          -68359.6 -37921.8 -20084.5 -10771.9 -5605.09 -2949.33 -101031 -119298 -171218 -171517 -114051 -46134.1
          -21603.8 -11500.1 -6202.4 -3249.87 -212401 -308218 -541932 -192424 -73756.8 -33456.3 -16204.1 -7790.63
          -3115.21 -678.903 -231394 -536913 -550925 -116734 -43038.1 -19647 -8367.12 -2055.49 1651 3498.58
          -162108 -190830 -112278 -45578.1 -20425.7 -7971.52 -671.125 3889 6683 8055.84 -94591.3 -62652.3
          -35880.5 -17102.6 -5919.35 1239.08 6054.88 9306.12 11364.6 12377.3 -31766.1 -21157.9 -10342.1 -2001.76
          4030.46 8446.55 11686.5 13993.1 15492 16234.9 -6101.56 -1946.4 3149.21 7612.96 11222.2 14084.6
          16304.3 17942.7 19029.1 19572.1 6911.22 8927.57 11640.4 14268.8 16567 18491.5 20040.6 21212.8
          22001.6 22398.9 14665.2 15807 17404.2 19061.2 20593.5 21927.8 23030.6 23879.7 24457.3 24749.8
          19748 20460.2 21475.7 22578.4 23640.1 24592.1 25394.5 26020.2 26449.2 26667.3 23247.7 23718.6
          24402.4 25170.4 25932.8 26632.2 27230.9 27702.5 28027.7 28193.7 25686.5 26012.3 26496.3 27055.2
          27624 28155.8 28617 28983.3 29237.2 29367 27342.7 27580.5 27942.7 28371.4 28816.7 29239.5
          29610.3 29906.8 30113.2 30219 28374.5 28561.8 28853.9 29206.3 29578.1 29935.4 30251.2 30505.2
          30682.5 30773.6 28870.3 29034.7 29294.6 29611.6 29949.1 30275.5 30565.4 30799.2 30962.8 31046.9
          -7004.39 -16613.3 -33485 -68708.2 -138204 -61219.5 -26390.8 -11422.9 -4470.77 -1595.81 -10167 -20824.6
          -43107.3 -121506 -532562 -106870 -32520.5 -13263.3 -5677.42 -2659.29 -17028.4 -27889.6 -47863.2 -90037
          -163083 -68302.1 -30230.5 -14900.9 -7830.52 -4772.76 -30463.5 -40818.6 -56944.3 -78541.9 -80402.2 -49356.6
          -28711.8 -17598.4 -11333.4 -8029.44 -60846.9 -69721.2 -77555.8 -81740.9 -67962.5 -45316.1 -30287.2 -22208.6
          -16456 -12006.1 -161346 -168141 -127103 -98214.4 -69000.2 -44113.6 -31038.2 -26008.2 -20708.2 -13949.3
          -546226 -574826 -231347 -98907 -54751.4 -33808.7 -23189.6 -17225.4 -12317.8 -8317.96 -227557 -535142
          -176129 -67910.1 -34844.7 -20006.8 -11953.9 -6836.26 -3107.69 -796.805 -82901 -119542 -63654.1 -32356.3
          -16521.8 -7510.43 -1881.97 1938.79 4575.29 6017.28 -35472.6 -35385.4 -22489.7 -11137.7 -3203.13 2264.12
          6100.21 8828.5 10672.6 11631 -10594.6 -8753.53 -3581.06 1756.58 6185.04 9636.33 12259 14190.7
          15492.7 16157 3321.16 4585.01 7270.66 10236 12935.8 15206.1 17023.9 18398.5 19329.7 19802.6
          11960.9 12771.2 14345.3 16160.5 17911.1 19457 20738.7 21727.3 22402.1 22745.1 17735.1 18273.1
          19269.9 20454.3 21641.6 22725.7 23646.6 24367.7 24863.4 25116 21773.4 22145.2 22813.6 23624.6
          24460.2 25241.5 25917.1 26452.1 26822.3 27011.5 24659.3 24924.7 25394.3 25973.2 26581.8 27161.2
          27669 28074.7 28357 28501.7 26716.5 26912.5 27257.3 27688.1 28148.4 28592.9 28986.5 29303.5
          29525 29638.8 28134.5 28285.7 28552.3 28889.4 29254.4 29610.7 29929 30186.8 30367.7 30460.8
          29026.4 29151 29371.6 29653.2 29961.1 30264.1 30536.6 30758.2 30914.1 30994.5 29457.5 29569.6
          29768.8 30024.6 30305.7 30583.6 30834.4 31038.8 31182.9 31257.2 -8532.19 -19451.9 -38410.6 -75531.9
          -138881 -66307.3 -31353 -15624.9 -8129.49 -4981.74 -11939.9 -24752 -52050.2 -142334 -539820 -118229
          -39438.5 -18408.8 -9992.75 -6578.35 -19210.7 -34438 -69757.3 -187909 -547116 -121776 -43240.5 -22486.5
          -13885 -10051.8 -32455.8 -48948.3 -81916.2 -158900 -152050 -73964 -42710.4 -29466.2 -21597.3 -16322.2
          -60653.1 -78100.2 -93985 -108886 -87919.3 -61656.5 -48509.2 -45985.2 -38890.6 -26672.4 -152890 -180855
          -128737 -97966.2 -72732.4 -57166.4 -56345.9 -80688.2 -76163.2 -37099.2 -549268 -536557 -191341 -87171.9
          -56372.6 -43939.6 -42109.8 -41360.8 -33252.4 -21520.7 -171051 -535240 -131265 -56597.6 -34455.1 -24725.1
          -20220.5 -16181.5 -11085.3 -6924.88 -57543.2 -92268.7 -47937.1 -26437.6 -15341.2 -8888.36 -4799.32 -1451.31
          1524.03 3409.23 -20227.6 -23279.5 -15193 -7480.75 -1736.43 2400.38 5435.73 7824.69 9653.08 10683.1
          -2341.05 -2231.76 728.661 4349.75 7627.77 10323.2 12464.9 14137.1 15337.9 15977.7 8170.65 8554.11
          10126.7 12174.1 14210.9 16018.5 17523.5 18704.7 19532.9 19963.7 15057.4 15381.2 16350.4 17636.5
          18980.3 20227.5 21297.2 22144.4 22734.9 23039.3 19843.3 20088.6 20730.9 21591.5 22517 23400.5
          24173.6 24791.6 25222.8 25444.6 23277.4 23462.1 23909.2 24511.6 25171.5 25813.6 26383.5 26843
          27164.6 27330.2 25772 25913.4 26237.6 26675.9 27162.4 27642 28072.4 28421.7 28667.2 28793.8
          27569.6 27680.6 27925.6 28257.6 28629.6 29000.1 29335.2 29608.8 29801.8 29901.4 28817.6 28908.1
          29102.5 29366.6 29664.5 29963.3 30235.4 30458.5 30616.4 30698 29606.6 29684.4 29848.7 30072.2
          30325.5 30581 30814.6 31006.8 31143.1 31213.7 29988.9 30060.7 30210.9 30415.4 30647.8 30882.8
          31098.1 31275.7 31401.7 31467.1 -8672.2 -19610.6 -37037.3 -63486.3 -78591.5 -52069.7 -30110.3 -17231.5
          -10260.6 -7157.1 -12243.1 -25932.8 -54428.8 -128952 -167141 -75170.3 -37005.8 -20623.7 -12693.2 -9202.46
          -19895.4 -39923.4 -109937 -539929 -543268 -123260 -47893.1 -27608.8 -18449.3 -13934.8 -32583.2 -57642.1
          -143582 -550132 -221351 -92969.6 -55513.7 -42649.9 -32595.5 -23630.8 -54935.7 -84828.3 -131266 -215410
          -127010 -85887.3 -77015.3 -101351 -89049.1 -45134.1 -102286 -179713 -161943 -134298 -98875.2 -87869.2
          -127221 -459871 -485792 -89641.7 -195512 -537031 -214857 -102985 -75947.8 -73501.1 -111658 -125650
          -87015.6 -39933.1 -93884.8 -164541 -93732.4 -55983.1 -41285 -36491.5 -39461.8 -35252.5 -22754.5 -13380
          -40127.6 -50271.1 -36819.8 -24318 -16736.2 -12387 -9946.31 -6382.32 -1840.05 1097.71 -13312.3 -14596
          -10559.3 -5495.72 -1321.77 1831.12 4274.06 6603.31 8717.07 9968.62 1612.68 1631.48 3467.45 6027.53
          8523.68 10687.1 12502.3 14046.8 15250.1 15917.1 10842.8 11007.4 12051.1 13554.6 15149.1 16633.1
          17922.1 18981.6 19756.2 20169.1 16991.8 17134.4 17793.5 18757.5 19826.1 20860.6 21778.1 22526.3
          23060.6 23340 21291.3 21400.6 21843.5 22497 23239.9 23976.6 24639.4 25180.9 25564.7 25764.1
          24385.4 24470.2 24782.2 25244.3 25777.5 26314.6 26803.2 27204 27487.9 27635.1 26637.2 26705.3
          26934.6 27274 27669.3 28071.6 28440.6 28744.7 28960.5 29072.4 28262.1 28318.8 28494.9 28754.5
          29058.4 29370 29657.4 29895.3 30064.6 30152.5 29391.8 29440.8 29582.8 29791.2 30035.9 30288
          30521.5 30715.5 30853.8 30925.7 30106.7 30150.9 30272.7 30450.4 30659.5 30875.5 31076.2 31243.3
          31362.7 31424.8 30453.4 30495.3 30607.6 30771 30963.3 31162.3 31347.5 31501.8 31612.2 31669.6
          -7536.37 -17172.3 -30338.8 -45436.2 -51097.2 -40493.3 -27013.9 -16919 -10699.9 -7769.25 -10957.9 -22666.4
          -41463.2 -69244.1 -75714.4 -52580.8 -32830.3 -20417.8 -13212.5 -9848.06 -18407.3 -35008.6 -71487.1 -165067
          -150490 -76480.3 -43829.2 -28050.3 -18910.7 -14451.9 -31323.1 -56411.4 -139575 -538933 -194093 -91443.8
          -58921.1 -44705.4 -30716.6 -22882.1 -53412.6 -90434.3 -196814 -541559 -202308 -109449 -93967.9 -109259
          -59714.6 -37386.5 -95684.2 -188625 -298637 -272525 -163105 -139433 -212512 -538123 -133086 -54038.2
          -167438 -537587 -561308 -180244 -151921 -173416 -533359 -523855 -93400.7 -37088.3 -85931.1 -136271
          -124766 -71334.6 -60472.6 -61224.5 -88608.9 -71953.6 -27673.4 -13965.7 -37561.3 -42327.2 -36985 -26387.8
          -20710.8 -17616.3 -16757.8 -11129.9 -3093.52 865.818 -11628.7 -11572.9 -8893.14 -4928.71 -1584.34 1098.08
          3333.74 5995.21 8630.08 10106.7 3174.87 3510.51 4968.76 7035.73 9118.56 11013.8 12696.8 14248.6
          15519 16225.1 12258.4 12457.1 13302.9 14537.2 15887.6 17190.6 18365.4 19369.7 20125 20532.2
          18202.6 18303.7 18824 19614.8 20521.1 21425.6 22249.7 22938.2 23438.5 23702.8 22293.3 22347.5
          22686.7 23219 23847 24487.4 25076.6 25566.3 25917.9 26101.9 25203.9 25238.3 25472 25845.8
          26294.7 26759.1 27190 27548.6 27805.3 27939.2 27307 27333.2 27503 27776.4 28108 28454.4
          28777.9 29048 29241.4 29342.2 28817.8 28840.7 28970.7 29179.5 29434 29701.4 29952.4 30162.7
          30313.5 30392.1 29865.4 29886.9 29992.2 30159.9 30364.7 30580.6 30783.9 30954.7 31077.3 31141.3
          30527.5 30548.3 30639.1 30782.4 30957.4 31142.2 31316.6 31463.4 31568.9 31624 30848.4 30868.9
          30952.9 31084.9 31245.9 31416.1 31576.9 31712.2 31809.6 31860.5 -5730.93 -13926.6 -23925.4 -34051.9
          -38843.9 -34532.2 -24598.2 -15666 -9764.23 -6917.98 -8951.28 -18546.3 -31378.9 -46009.5 -52212.2 -45455.1
          -30798.5 -19204.8 -12066.6 -8724.08 -16135.5 -28966.4 -49426.7 -79275.3 -83667.1 -68516.3 -42823.3 -26242
          -16725.4 -12356.6 -29414.9 -48598.4 -88870.6 -181859 -128815 -90953.4 -57327 -37146 -24087.9 -17826.2
          -54712.3 -88685.7 -198189 -557609 -211599 -116653 -80693.7 -58161.8 -35379.5 -24607.4 -107925 -194498
          -546816 -553022 -292937 -198122 -159650 -111393 -49059.8 -28839.5 -201505 -297143 -534713 -291815
          -583395 -534569 -524649 -117371 -40251.3 -21367.3 -107706 -115112 -133677 -92576.6 -106383 -96642.8
          -82376.2 -37167.3 -15893.9 -7860.6 -45456.3 -42450.4 -38543.7 -29550.7 -25554.1 -20474.8 -14980.8 -6292.68
          210.86 3369.57 -13595.4 -11472.3 -8522.4 -4764.09 -1583.31 1445.8 4348.36 7471.97 10011.9 11374.3
          3301.31 4213.76 5789.07 7782.58 9785.44 11697.1 13463.4 15078.8 16337.5 17021 12969.2 13312.6
          14157.2 15318.6 16589.3 17840.4 18989.8 19978.3 20715.8 21110.7 18992.8 19112.3 19591.9 20312
          21145.1 21989.2 22769.1 23426.2 23905.1 24158.1 23013 23050.7 23343 23813.6 24379.3 24965.5
          25511.9 25970.2 26301 26474.6 25821.6 25831.9 26023.3 26346.1 26744 27163 27556.9 27887.8
          28126.1 28250.7 27828.7 27831.7 27966 28198 28488.2 28797.3 29089.8 29336.3 29514 29606.8
          29261.2 29263.7 29364.3 29539.4 29760 29996.5 30221.5 30411.7 30549 30620.7 30250.6 30254.4
          30335 30474.5 30650.8 30840.5 31021.5 31174.9 31285.8 31343.8 30874.4 30879.5 30948.7 31067.5
          31217.4 31379 31533.5 31664.7 31759.6 31809.3 31176.4 31182.2 31246.2 31355.3 31493 31641.4
          31783.5 31904.1 31991.5 32037.2 -3706.17 -10819.9 -19070.5 -27568.6 -33637 -33166.6 -23217.4 -13822.9
          -7747.71 -4875.86 -6772.68 -14960.7 -25155.9 -37031.7 -48006.8 -52525.7 -32410.8 -17863.7 -9854.17 -6339.74
          -13772 -24339.4 -39105.5 -59551.4 -83383.2 -115779 -52474 -25334.2 -13607.6 -8950.81 -27543.6 -42399.6
          -66072.6 -103452 -127511 -147707 -65485.1 -32130.4 -17712.2 -11969.3 -58593 -81528.3 -124397 -206917
          -165401 -113797 -64305.6 -36468.9 -21010.9 -14287.1 -161466 -202922 -288402 -331696 -224146 -117427
          -72029.2 -41389 -22148.4 -14088 -576940 -566305 -537394 -538148 -533767 -148481 -90382.2 -36840.9
          -16561.1 -9100.35 -221357 -189056 -148780 -117566 -96021.5 -50045 -31820.8 -14965 -5222.66 -920.948
          -68144 -55606 -41755.1 -30506.8 -22150.1 -12625 -5825.73 405.067 4785.36 6964.07 -17788.6 -13535.2
          -8601.33 -3922.9 105.62 3925.64 7188.71 10066.7 12201.4 13320.5 3043.07 4421.47 6418.6 8667.88
          10870.2 12951.8 14806.4 16389.4 17558.9 18178.9 13499.3 13942.8 14868.1 16077.7 17380.7 18656.4
          19814.3 20787 21496 21870.4 19618.3 19751.8 20231.1 20940.1 21758.2 22587.7 23352.4 23992.6
          24455.2 24698.1 23581.4 23611.6 23884.7 24330 24869.2 25431.2 25956.7 26397.5 26715.2 26881.6
          26308.5 26306.4 26476.1 26772.5 27143.5 27537.9 27910.9 28225.3 28452.1 28570.7 28241.4 28231.7
          28345.9 28554 28820 29106.6 29380.1 29611.7 29779.1 29866.7 29614.3 29605 29687.9 29842.2
          30041.5 30258.2 30466.2 30643.1 30771.2 30838.4 30559.7 30552.8 30617.8 30739.1 30896.6 31068.6
          31234.4 31375.8 31478.4 31532.2 31154.8 31150 31205.1 31307.3 31440.1 31585.6 31726.1 31846.2
          31933.5 31979.3 31442.5 31439 31489.6 31583 31704.4 31837.5 31966.2 32076.2 32156.3 32198.3
          -1628.01 -7940.43 -15092.4 -22784.4 -29878.4 -32556.2 -20680.5 -10670.5 -4619.74 -1846.03 -4553.28 -11887.5
          -20947.2 -32801.8 -50748.2 -81163.1 -35166.3 -15317.9 -6525.68 -2984.59 -11282 -20928.6 -34606.5 -58409.7
          -126519 -507808 -84221.6 -24601.1 -9687.59 -4800.64 -24734.1 -38609.7 -61044.8 -106669 -226782 -536898
          -102471 -29574.4 -11924.7 -6287.45 -56074.5 -77478.3 -115608 -204765 -228607 -146584 -57165.5 -24881.1
          -11602.9 -6433.65 -164737 -198227 -240882 -207945 -142445 -76423.5 -39974.1 -20024.3 -9337.73 -4707.07
          -541843 -536098 -548520 -199382 -120128 -54302.8 -29537.3 -13331.6 -4564.93 -722.464 -547343 -549306
          -157541 -71580.2 -44264.4 -23669.8 -11796.8 -3138.71 2266.67 4822.14 -97141.3 -89581.9 -43116.3 -23210.8
          -12646.9 -4539.03 1333.75 5870.45 8943.42 10478.5 -18594.1 -15928.3 -7879.72 -1595.33 3140.23 7066.01
          10236.9 12758 14525 15432.9 4063.86 5002.77 7343.33 9921.43 12334.6 14507.5 16368 17871
          18936.4 19489.3 14362.3 14682.5 15639.5 16915.9 18275.9 19583.7 20746.5 21697.3 22374.1 22726.3
          20269.7 20364.2 20836.2 21552 22378.9 23212.6 23974.4 24604.2 25053.9 25288.2 24084.6 24099.2
          24361 24798.3 25331.1 25886.6 26404.5 26837 27147 27308.7 26710 26699.1 26857.9 27143
          27503.1 27887.3 28251 28557.3 28777.8 28893.1 28571.2 28554.9 28659 28855.6 29109.7 29385.3
          29649 29872.7 30034.4 30119.1 29893.2 29878 29951.6 30094.8 30282.6 30488.4 30686.8 30856.1
          30978.9 31043.3 30803.2 30790.7 30847.1 30957.9 31104.4 31266 31422.6 31556.7 31654.3 31705.5
          31375.8 31365.6 31412.5 31504.8 31627.2 31762.6 31894.3 32007.3 32089.7 32133 31652.6 31643.7
          31686.3 31770.2 31881.4 32004.7 32124.7 32227.9 32303.1 32342.7 460.313 -5078.53 -10986.3 -16808.9
          -21107.3 -20430.2 -12649.1 -5236.73 -389.522 1912.86 -2294.7 -8863.2 -16607.5 -26031.5 -36651.1 -38456.7
          -20723.8 -8398.62 -1748.06 1125.21 -8603.43 -17717.7 -30765.3 -54249.7 -104734 -114708 -41286.1 -14251.8
          -3875.62 -24.7604 -21017.9 -35652.2 -63915.1 -155091 -538899 -494648 -75409.8 -19173.8 -5233.85 -697.374
          -48859.4 -76027.6 -153763 -577074 -535482 -131110 -41020.7 -14399 -4039 -74.5883 -142561 -195302
          -272499 -257191 -139503 -54759.3 -23447.4 -8730.56 -1285.75 1919.4 -538052 -534540 -271739 -114272
          -59741.4 -28462.7 -12345 -2769.27 2685.8 5173.38 -185862 -526256 -121321 -49493.7 -25233.5 -11012.1
          -2124.96 3817.09 7499.64 9260.3 -51938 -76327.1 -35121.5 -16159.2 -5810.74 1280.21 6331.89 9959.84
          12330.9 13502.7 -10331.7 -11765.3 -4855.47 1329.28 6120.42 9922.07 12895.3 15137.1 16650.3 17413.5
          6701.68 6818.56 8870.71 11428.8 13885.8 16064.1 17885 19306.7 20286.1 20786 15566.9 15674
          16545.5 17817.7 19200.4 20523 21682 22610.7 23259.5 23593.2 20953.8 20987.6 21433.4 22149.2
          22986.7 23829.5 24593.2 25217.2 25657.9 25885.9 24535.5 24532.6 24786.2 25223.7 25760.4 26319.6
          26838.4 27268.8 27575.5 27734.8 27039.5 27023.6 27179.1 27463.2 27823.3 28207.5 28570.2 28874.7
          29093.2 29207.2 28829.9 28811.7 28913.4 29107.6 29359.5 29632.7 29894 30115.3 30275.1 30358.6
          30107.3 30090.6 30161.6 30301.3 30485.5 30687.6 30882.6 31048.9 31169.5 31232.7 30988.6 30974.5
          31027.7 31134.4 31276.4 31433.5 31586.1 31716.9 31812 31862 31543.6 31531.6 31575 31662.8
          31780.3 31910.8 32038.1 32147.6 32227.4 32269.4 31812.1 31801.2 31840.2 31919.4 32025.5 32143.7
          32259.2 32358.7 32431.3 32469.5 2469.38 -2225.24 -6644.53 -10106.9 -11425.6 -9388.46 -4347.72 635.419
          4130.16 5863.84 -86.1437 -5710.47 -11454.2 -16694.8 -19260.2 -16409.9 -8167.68 -1125.59 3304.98 5376.48
          -5831.66 -13883.8 -23683.2 -35867 -42231.7 -35218.4 -15986.6 -4080.51 2096.79 4723.43 -16534.7 -30511.3
          -53833.2 -104755 -109085 -76779.9 -24983.5 -6285.18 1460.86 4489.19 -36961 -68408 -153864 -530423
          -144438 -51458.4 -18591.7 -4310.66 2426.2 5218.07 -81283.3 -186680 -536926 -532129 -100606 -32101.2
          -10806.8 -658.04 4633.46 6957.7 -176127 -534482 -519021 -122593 -41793.2 -15616.9 -3264.5 3737.94
          7719.81 9547.89 -75580.9 -144565 -92369.6 -38627.8 -15715.2 -3576.23 3773.35 8473.96 11329.7 12687.4
          -26468.8 -36184.9 -23802 -10193.8 -925.456 5461.22 9940.52 13046.2 15024.9 15990.6 -3148.18 -4568.6
          -802.895 4235.68 8691.89 12293.6 15079.1 17124.7 18473.6 19144.5 9267.7 9083.03 10621.2 12940
          15324 17462.6 19234.1 20591.1 21509.1 21972.2 16692.9 16683.3 17450.5 18681.8 20063.8 21391.6
          22545.9 23458.4 24087.8 24408.6 21541 21541.7 21970.7 22690 23541.9 24398.6 25169.3 25793.2
          26229.8 26454.2 24892 24884.2 25141.3 25589.6 26140.2 26711.6 27238.6 27672.7 27980 28138.9
          27285.5 27272.4 27434.3 27727.6 28097.6 28490.3 28859.1 29167 29387.1 29501.4 29017.1 29002.6
          29109.4 29309.6 29567.4 29845.7 30110.6 30334.1 30494.9 30578.9 30260.3 30246.5 30320.5 30463.5
          30650.5 30855 31051.6 31218.8 31339.8 31403.2 31120.7 31108.4 31163.1 31271 31413.9 31571.6
          31724.3 31855 31950 31999.8 31663.5 31652.5 31696.2 31784 31901.1 32031.1 32157.7 32266.5
          32345.7 32387.4 31926.1 31915.9 31954.8 32033.3 32138.5 32255.7 32370 32468.5 32540.3 32578.2
          4220.02 343.505 -2657.93 -4176.08 -3733.83 -1334.5 2283.52 5744.13 8245.62 9521.29 1787.97 -2857.47
          -6548.42 -8480.22 -7786.19 -4472.38 441.248 4805.52 7775.68 9238.07 -3594.63 -10245.1 -15831.5 -19030.1
          -17081.8 -10996.7 -2846.28 3341.76 7129.14 8891.38 -13183.7 -24594.3 -34990.8 -42444.7 -33203.9 -19644.3
          -5918.85 2353.96 6864.96 8859.63 -29682.8 -54258.5 -76107.1 -99175.9 -45345.9 -19202.6 -4902.36 3148.64
          7539.34 9491.85 -59643.5 -141229 -160187 -110648 -39960.4 -13985.8 -1574.47 5309.26 9137.01 10869.5
          -111854 -531539 -154168 -57802.4 -22459.9 -6014.04 3004.27 8359.72 11459 12893.6 -49285.5 -100251
          -53133.3 -24027.2 -7837.61 1835.47 7944.65 11863.7 14233.1 15355.7 -16586.1 -23975.2 -15131 -4935.87
          2940.36 8629.21 12655.8 15419.3 17157.8 17999.2 635.159 -662.614 2271.84 6641.91 10777.7 14192.8
          16829.8 18742 19985.8 20598.8 10802 10590.7 11974.2 14181.2 16519.3 18630.7 20368.8 21684.2
          22563.3 23003.1 17375.4 17368.2 18135.4 19380.7 20786.4 22132.9 23293.4 24201 24820.6 25134.2
          21886 21904.2 22362.1 23116.4 24002.6 24886.2 25673.5 26304.5 26742.5 26966.4 25096.3 25106.9
          25391.4 25870.5 26450.1 27044.7 27587.8 28031.4 28343.4 28504 27426.8 27428.3 27610.5 27926
          28316.9 28726.8 29108.3 29424.4 29649.1 29765.5 29127.3 29123.2 29243.6 29458.6 29730.3 30020.3
          30294.1 30523.7 30688.2 30773.9 30353.2 30346.5 30429.3 30581.6 30777.5 30989.4 31191.9 31363.2
          31486.8 31551.4 31203.3 31195.8 31256 31369.7 31518 31680.3 31836.6 31969.9 32066.5 32117.2
          31739.9 31732.2 31779.6 31871.1 31991.6 32124.4 32253.2 32363.6 32443.9 32486 31999.6 31992
          32033.7 32114.9 32222.5 32341.7 32457.7 32557.2 32629.8 32668 5553.83 2333.63 459.349 302.455
          1726.69 4234.47 7150.7 9769.39 11655.4 12625.3 3034.85 -904.859 -3026.2 -2866.16 -755.548 2531.21
          6147.6 9237.38 11381.3 12459.9 -2615.01 -8558.16 -11228.8 -9978.18 -5859.87 -650.941 4462.4 8435.68
          11020.2 12274.9 -12739.7 -23808.2 -27200.1 -22479.4 -13154.3 -4298.02 2937.96 7900.07 10906.5 12315.8
          -29442.1 -54632.3 -55320.3 -40004 -19253.8 -5703.16 2888.94 8245.19 11372.9 12817.9 -55755.3 -131779
          -86929.3 -46472.2 -18914.6 -4068.25 4458.18 9568.41 12518.6 13879 -101108 -528992 -113454 -37388.7
          -12290.9 137.347 7332.36 11710.8 14270.9 15461.3 -43383.7 -91571.4 -42547.6 -16854 -2880.26 5561.77
          10935.3 14377.5 16449.6 17427.9 -14098.3 -20544.4 -11484 -1846.73 5567.44 10917.1 14680.3 17236.6
          18828.9 19594.4 1465.52 607.25 3757.64 8147.66 12255.7 15618.2 18185.4 20023.3 21205.5 21783.9
          11010 11048 12634.7 14970.6 17385.6 19532.2 21274.4 22575.6 23435.9 23863.3 17401.1 17539.8
          18457 19822.7 21314.2 22714.1 23902 24818.9 25438.8 25750.6 21880.8 21984.3 22540.7 23383.5
          24338.7 25270.4 26087.5 26734.6 27179.8 27406 25100.6 25161.5 25507.5 26045.8 26674.6 27306.3
          27874.5 28333.6 28654 28818.2 27445.5 27477 27696.9 28050.3 28474.4 28910.6 29311.1 29639.8
          29871.9 29991.6 29156.3 29170.4 29313.8 29552.7 29846.1 30153.9 30441.3 30680.2 30850.4 30938.8
          30387.9 30392.5 30489.5 30656.8 30866.6 31090.4 31302.2 31480.1 31607.9 31674.5 31240.4 31240.2
          31309.5 31432.8 31590.2 31760.3 31923 32060.9 32160.5 32212.6 31777.7 31775.2 31828.9 31926.8
          32053.6 32191.9 32325.3 32438.9 32521.4 32564.6 32037.6 32034.2 32080.8 32167.2 32279.8 32403.3
          32522.9 32625.2 32699.5 32738.6 6474.44 3711.2 2670.64 3451.41 5471.64 8045.63 10619.6 12789.8
          14320.6 15104.4 3613.94 -20.5718 -999.764 615.468 3568.91 6879.21 9961.38 12443.3 14143.2 14999.3
          -3219.61 -9882.84 -10431.1 -5883.99 -311.825 4728.86 8855.94 11917.7 13911.4 14888.6 -16834.5 -34569.5
          -32578.5 -17732.6 -5915.24 2184.51 7781.89 11534.9 13842.1 14940.3 -41467.7 -104308 -85013.7 -34733.6
          -11333.3 526.114 7430.83 11670.2 14163.9 15326.5 -68597.9 -181698 -91982.7 -37240 -11729.3 1059.08
          8247.55 12529.8 15003.7 16147.3 -108420 -530418 -110554 -32552.1 -7891 3707.54 10212.1 14103.2
          16359.2 17404.3 -47704.9 -93282.7 -41315.5 -14519.8 -339.386 7914.38 13014.4 16216.1 18119.4 19012.2
          -17188 -21682.7 -11057 -648.771 7060.21 12446.2 16138.3 18598.4 20110.8 20832.4 -815.651 -364.21
          3790.37 8750.97 13137.2 16605.5 19189 21005.3 22159 22719.3 9585.01 10345.3 12540 15270
          17909.3 20169 21958.1 23271.5 24129.5 24552.8 16595.7 17098.4 18360.2 19978.4 21632.7 23128.2
          24366.8 25307.4 25936.2 26250.4 21450.2 21733.2 22478.5 23475.3 24540.7 25544.4 26405.2 27076.5
          27533.8 27764.8 24879.1 25030.3 25479.3 26109.2 26809.5 27492 28093.8 28573.5 28905.3 29074.5
          27336.6 27415.3 27692.1 28099.9 28569.2 29039.9 29464.7 29809.4 30050.8 30174.8 29107 29147.1
          29322.8 29594 29915.8 30246.5 30550.8 30801.5 30978.9 31070.6 30369.7 30389.4 30505.3 30692.3
          30920.1 31159 31382.4 31568.6 31701.6 31770.7 31238.1 31247.2 31328.2 31463.9 31633 31813.3
          31984.1 32127.9 32231.3 32285.2 31783.1 31787 31848.6 31955.1 32090 32235.5 32374.7 32492.8
          32578.2 32622.9 32046 32047.8 32100.7 32193.9 32313.1 32442.5 32567 32672.9 32749.7 32790
          7201.21 4778.74 4344.24 5729.15 8080.96 10674.8 13060.6 14983.2 16310.8 16984.8 3942.48 373.977
          307.575 2960.18 6409.95 9728.64 12550.2 14720.4 16178.4 16907.9 -4632.72 -13770 -11828.8 -3851.95
          2889.99 7945.79 11671.5 14309.9 16000.9 16826.6 -25910 -74262.9 -57132.6 -18800.1 -2653.23 5681
          10739.9 13973.1 15934 16865.4 -84441.6 -523468 -362947 -52536.4 -9249.69 3810.84 10243.2 13987
          16154.1 17160.7 -123986 -539587 -155515 -42998.7 -9523.27 3851.44 10671.3 14572.6 16790.2 17809.3
          -156551 -534314 -143005 -37965.5 -6853.12 5692.13 12109.9 15785.7 17875.6 18835.9 -69814.4 -105586
          -48784.2 -15897.7 538.037 9317.79 14429.9 17533.3 19345.9 20188.9 -29035.1 -27358.2 -13386.9 -908.619
          7721.05 13411 17156.7 19589.9 21063.5 21761 -8158.98 -3833.38 2518.91 8624.63 13550.7 17242.5
          19900.6 21729.3 22875.4 23428 5776.18 8326.75 11731 15147.9 18145.7 20579.4 22445.8 23788.6
          24655 25079.5 14741.3 15995.7 17865.3 19879.6 21767.4 23392.1 24698.2 25671.6 26314.8 26634.2
          20553.6 21151.5 22193.4 23410.8 24622.4 25716.5 26630.3 27331 27803.2 28040.4 24438.6 24727.6
          25322.7 26074.3 26863.8 27606.8 28247.5 28750.7 29095.4 29270.3 27115.4 27258.6 27609.6 28084.9
          28608.1 29118.3 29570.3 29932.5 30184.2 30313 28993.5 29066 29281 29590.4 29944.9 30301.2
          30624.1 30887.3 31072.4 31167.7 30309.9 30347.2 30485.1 30694.4 30942.4 31197.8 31433.8 31629
          31767.6 31839.4 31205.3 31224.9 31319 31468.5 31650.5 31841.7 32021.2 32171.4 32278.9 32334.9
          31763.5 31774.3 31844.6 31960.3 32104.2 32257.6 32403.2 32526.1 32614.6 32660.9 32031.7 32039
          32098.8 32199.3 32325.7 32461.6 32591.3 32701.4 32780.9 32822.5 8029.46 5997.14 5954.68 7561.4
          9969.03 12493 14738.1 16507.9 17714.6 18323.4 4868.75 1901.87 2434.55 5176.36 8538.97 11690.5
          14308.1 16287.2 17603.6 18259.2 -3418.97 -10873 -7101.04 -364.485 5590.55 10178.1 13557.4 15934
          17449.4 18187.7 -23970.3 -62921.5 -31937.1 -10778.1 1153.4 8239.52 12726.7 15619.2 17375.3 18209.5
          -81929.1 -461329 -100240 -27374.6 -3888.78 6521.95 12193 15566.9 17528.2 18440 -159876 -533433
          -145876 -38076.3 -6521.77 6018.11 12367.2 15981.9 18031.1 18971.6 -535641 -532504 -521918 -61324.5
          -7113.29 7062.11 13437.3 16957.8 18936.2 19841.4 -169873 -133380 -78211 -19927.1 877.736 10295.5
          15424.6 18457.4 20208.8 21019.3 -62930.9 -38147.3 -17991.5 -1730.27 8078.25 14071.4 17868.1 20286.7
          21736.4 22419.2 -27114.7 -10266 368.057 8165.28 13731.8 17655.2 20389.4 22236.6 23382.3 23931.6
          -1946 4932.52 10421 14785.5 18206.3 20826.8 22773.4 24148.6 25026.4 25454 11648.4 14312.5