<?xml version="1.0"?>
<VTKFile type="UnstructuredGrid" version="0.1" byte_order="LittleEndian">
  <UnstructuredGrid>
    <Piece NumberOfCells="3800" NumberOfPoints="4620">
      <CellData Scalars="p (Pa)">
        <DataArray type="Float32" Name="p (Pa)" NumberOfComponents="1" format="ascii">
          25649.3 25112.3 24035.5 22424 20309.4 17769.9 14924.4 11887.3 8743.9 5538.07 25437.7 24849.9
          23661.6 21862.7 19477.7 16609 13438.1 10113.9 6729.61 3317.72 25050.7 24361.5 22943.7 20739.1
          17733.3 14076.6 10147 6174.82 2262.98 -1605.43 24565.2 23732.2 21970.7 19103.3 14965.2 9731.87
          4351.84 -803.803 -5638.72 -10354.7 24100.2 23112 20952.1 17215.1 11315.3 3149.99 -4773.35 -11970.6
          -18374.3 -24704.8 23796.2 22705.7 20268.2 15843.1 8195.18 -4008.44 -15403.9 -25895.7 -35441.4 -45848.9
          23755.8 22676.9 20302.2 16135.1 9372.88 -554.884 -11818.7 -25172.6 -42862.6 -69806.6 23979.3 22982.2
          20836.7 17222.9 11668.3 3732.54 -6736.52 -21697.2 -46993.8 -101649 24409.4 23509.4 21601.6 18459.4
          13721.2 6849.62 -3163.57 -19405.2 -52494.7 -155475 24984 24170.8 22456.5 19647.8 15396.3 9050
          -858.092 -18544.3 -59313.8 -194730 25657.6 24918.4 23360.2 20799.5 16881.3 10878.9 1001.91 -18885.7
          -84099.2 -522156 26400.4 25730.2 24315.6 21984.9 18402.8 12900.9 3988.67 -12255.4 -47408.2 -106520
          27189.3 26591.1 25330.1 23259.1 20104.6 15382.9 8272.62 -2425.27 -17011.3 -24339.7 27998.2 27478.9
          26390.8 24624.6 21994 18228.1 13062 6715.97 1316.73 538.448 28792.8 28357.4 27455.3 26022.5
          23967.3 21205.8 17795.1 14261.9 11956 11954.5 29532.5 29178.3 28455.3 27338 25804.1 23873.9
          21698.5 19690.6 18515 18527 30175.9 29892.3 29322.3 28465.8 27338.3 25998.3 24590.4 23377.9
          22681.5 22644 30687.9 30458.9 30005.3 29340.3 28495.2 27534.8 26573.6 25776.1 25308.9 25244.1
          31042.6 30850.2 30473.2 29930.9 29259.1 28518.9 27800.2 27214.1 26860.8 26785.9 31223.8 31049.5
          30710.3 30227.2 29637.1 28997.1 28384.7 27888.2 27583.2 27505.8 25191.4 24613 23449.8 21702.2
          19402.7 16644.8 13574.5 10305 6868.85 3178.23 24957.8 24316.2 23011.4 21017.9 18352.4 15148
          11676.1 8109.58 4494.28 707.27 24529.7 23758.9 22150.8 19590.9 16001.7 11583.4 7082.98 2830.61
          -1092.1 -4910.8 23993.6 23032 20938.9 17345.2 11744.1 4174.01 -2724.3 -8310 -12383.5 -15499.3
          23490.1 22313.5 19608.3 14419.7 4656.98 -12217.5 -25171.7 -33445 -36111.1 -34728.9 23195 21880.1
          18729.3 12032 -3894.26 -48874.2 -76348.7 -91242.2 -87080.2 -66581.3 23239.4 21982 19080.2 13472.8
          2753.62 -16487.5 -34365.9 -52100.2 -71926.4 -92274.1 23601.5 22498.9 20071.1 15806.4 8861.6 -1459.74
          -13756.1 -29893.7 -55432.1 -105072 24190.4 23249.1 21241.1 17904.3 12850.1 5655.64 -4121.12 -18843.6
          -46988.8 -134091 24919.3 24112.4 22418.2 19669.1 15595.5 9774.47 1371.14 -12006.3 -38413 -118750
          25727.6 25028.1 23569.1 21221.1 17758.4 12779 5448.27 -6371.8 -29257.8 -85221.4 26576.9 25967.9
          24702 22675.1 19705.5 15485.4 9475.26 720.294 -12091.8 -27244.8 27439.2 26912.8 25823.5 24093.3
          21595.9 18152.1 13555 7725.16 1295.69 -2928.89 28288.1 27841.4 26922.9 25483.1 23452.7 20766
          17439.5 13763.5 10602.2 9256.04 29094.4 28723.8 27969.5 26808.5 25220 23216.5 20913.7 18639.2
          16977.4 16453.4 29825.6 29524.4 28918.5 28005.6 26796.9 25342.6 23774.2 22342.9 21383.9 21119.2
          30450.2 30207.5 29725.2 29013.7 28100.5 27046 25963.5 25024.3 24416.6 24246.1 30941.6 30743.6
          30354.6 29791.4 29087.2 28300.2 27520.1 26862.9 26440.3 26311 31279.6 31111.6 30784.1 30316.7
          29743.5 29117.3 28510.5 28006.9 27681.1 27572.3 31451.7 31298.5 31001.5 30580.8 30070.1 29518.9
          28990.5 28554.7 28271 28171.1 24891.4 24286.5 23067.3 21228.6 18798.1 15869.2 12595.3 9072.29
          5278.2 996.594 24647.3 23972.4 22594.3 20473.6 17611 14141.8 10395.1 6537.39 2568.59 -1757.53
          24200.1 23380.2 21653.9 18857.2 14825.9 9712.74 4648.06 -38.3983 -4243.76 -8236.39 23641.9 22602.6
          20295.1 16157.6 9152.59 -1634.48 -10555.1 -17127 -20848.6 -21627.2 23125.6 21830.3 18732.7 12174.3
          -3319.19 -46802.1 -71782.9 -83903.4 -78394.1 -51329.7 22848.3 21384.2 17642.7 7987.4 -32855.8 -447453
          -514529 -526283 -429458 -123094 22962.1 21594.4 18317.3 11356.4 -5186.24 -51977.5 -86080.7 -120153
          -169100 -182573 23429.3 22269 19671.1 14939.9 6700.13 -6793.78 -21492.7 -40400.3 -70726.7 -114019
          24138.3 23182.8 21136.3 17711.9 12484.5 5079.99 -4340.21 -17322.5 -37800.2 -74296.9 24985.6 24197.2
          22548.1 19894.9 16033.3 10722.2 3631.12 -6246.29 -21229.1 -46774.8 25898.6 25240.9 23881.4 21732.6
          18662.4 14484.3 8897.36 1310.78 -9272.29 -23432 26829.9 26277.5 25143.6 23370.7 20872.7 17534.9
          13214.8 7782.34 1382.61 -4612.03 27747.1 27283.9 26339.1 24877.8 22854.3 20226.4 16994.9 13299.9
          9628.73 7073.54 28623.6 28238.9 27460 26271.1 24659.7 22638.5 20290 17841.2 15735.8 14559
          29433.8 29118.7 28486.2 27535.6 26278.4 24758.5 23085.1 21468.6 20215.4 19612.2 30152.7 29897.5
          29390.1 28640.1 27672.9 26543.7 25356.4 24272.5 23484.7 23136.7 30756.9 30550.5 30144.1 29553.1
          28808.4 27965.1 27109.8 26358.5 25831.3 25606.1 31226.8 31057.2 30726.1 30251.4 29664.9 29016.5
          28376.1 27827.1 27448 27286.1 31547.9 31402.8 31121.1 30721.7 30235.3 29706.7 29193.6 28759.8
          28461.8 28332.7 31710.7 31577.7 31320.5 30957.9 30519.7 30047.8 29593.7 29212.2 28950.2 28835.5
          24773 24162.8 22932.7 21076.2 18615 15625.9 12228 8481.32 4312.56 -587.39 24534.2 23857
          22476.2 20356.9 17501.1 14021.5 10159.6 6032 1587.22 -3460.78 24099.4 23285.1 21582 18858.1
          15007.4 10190.3 5105.14 -19.1169 -5198.23 -10225.9 23562.9 22546.8 20329.9 16506.3 10495.7 2210.17
          -5864.11 -13586.9 -21572.5 -24502 23078.2 21836.6 18975.9 13467.6 3022.37 -15380.3 -31391.2 -47831.1
          -80290.2 -59384.4 22837.1 21454.5 18135 11057.5 -5857.48 -53895.5 -89752.8 -139554 -482791 -173240
          22982.5 21670.1 18631.8 12724.9 1294.84 -19956.5 -44988.1 -108171 -530273 -537909 23491.4 22362.6
          19871.5 15480.3 8289.15 -2557.8 -16405.4 -39475 -98185 -142753 24257.8 23328 21349 18079.3
          13190.4 6417.73 -2311.27 -14281.7 -32247.5 -52963.9 25171.7 24414.7 22839.8 20331.9 16745.4 11948.2
          5819.8 -1988.15 -11922.1 -23529.8 26149 25532.1 24266 22291.8 19536.4 15930.2 11414.8 5937.81
          -388.536 -6746.46 27132.9 26628.5 25603.1 24027.1 21868 19105.8 15757.9 11931.7 7961.25 4648.88
          28084.4 27672.4 26841 25579.4 23882.8 21769 19308.7 16674.3 14208.8 12455.1 28975.5 28640.4
          27969.2 26964.1 25638.6 24034.2 22244.1 20442.6 18898.4 17925.7 29783 29512.3 28974.2 28179.1
          27151.8 25943.7 24648 23410.7 22418.8 21846.2 30487.3 30269.3 29839.7 29213.4 28420 27511.4
          26569.5 25706.1 25045.6 24685.7 31071.1 30894.9 30550.1 30053.8 29436.3 28745.3 28048.2 27427.9
          26967.4 26725.3 31520.7 31375.3 31092.7 30690.3 30197.2 29655.4 29119.9 28653 28312.5 28136.8
          31825.9 31700.7 31458.6 31116.9 30702.6 30253.3 29815.4 29438.3 29166 29026.6 31980.1 31864.9
          31642.8 31330.6 30954.4 30549.3 30157.2 29821.6 29580.3 29457.1 24830.7 24233.2 23029.7 21213.2
          18797.7 15834.8 12398.4 8510.7 4059.53 -1325.36 24609.4 23953.6 22621.4 20586.4 17850.4 14487.2
          10637.5 6365.89 1575.8 -4126.47 24209.5 23437.2 21839.1 19328.8 15850.5 11510.8 6649.48 1425.25
          -4206.47 -10464.2 23722.6 22784.9 20788.1 17496.7 12650.7 6311.06 -647.123 -7989.76 -15782.5 -22607.2
          23291.7 22176.9 19719.3 15401.9 8413.37 -1705.11 -12747.6 -25030.7 -40532 -46852.4 23087.7 21861.8
          19092.6 13971.7 4858.18 -10440.2 -27680.6 -50613.5 -100307 -98979.9 23237.1 22042.8 19379.9 14594.8
          6507.65 -6280.66 -23500 -51401.4 -121236 -184831 23741.1 22682.2 20383.2 16452.1 10283.5 1263.08
          -10811.9 -27675.9 -54061 -84060.2 24514.3 23626.8 21748.4 18673.2 14121.9 7845.52 -256.737 -10457.8
          -23104 -36965.5 25449.3 24726.2 23225.7 20846.5 17465.2 12988.5 7410.24 813.216 -6490.88 -13688.2
          26454.5 25872.3 24681.7 22836.7 20289.9 17022.5 13086.1 8650.74 4100.5 129.315 27463.1 26996.6
          26052.8 24615.9 22678 20260.6 17446.3 14420.9 11523.2 9257.12 28429.8 28056.8 27309 26187.3
          24705.2 22905.1 20880.7 18802.2 16931.7 15592.8 29323.7 29026.2 28434.4 27558.6 26423.3 25079.1
          23616.6 22177.4 20949.5 20128.5 30122.9 29886 29418.1 28734.4 27863.8 26857.2 25794.3 24785.9
          23961.6 23438 30810.9 30621.9 30251.2 29715.7 29044.9 28285.6 27504.2 26784.5 26215.1 25867.1
          31375.2 31222.8 30926 30501.6 29977.6 29395 28808.1 28279.7 27871.4 27628.8 31806.1 31680.3
          31436.6 31091.1 30669.6 30207.8 29749.9 29344.5 29036.4 28857.1 32097 31988.4 31778.9 31483.9
          31127.1 30740.2 30360.8 30028.7 29778.9 29635.5 32243.4 32143.4 31950.6 31680.2 31354.6 31003.5
          30661.3 30363.3 30140.3 30013.2 25036.3 24461.7 23304.4 21555.5 19219.2 16323.1 12906.5 8967.52
          4381.37 -1222.52 24837.4 24213.5 22948.8 21020.1 18421.3 15189.1 11399.6 7087.89 2135.91 -3905.32
          24480 23759.1 22277.3 19970.5 16791.6 12782.5 8111.09 2917.31 -2869.52 -9795.79 24048.1 23192.1
          21394.8 18498.1 14331.1 8875.41 2471 -4489.68 -11916.1 -20218 23669.2 22668.8 20514.1 16880.6
          11302.2 3443.75 -6179.18 -16600.6 -27423.9 -38056.6 23491.6 22391.9 19973.7 15725.8 8731.35 -2197.78
          -16972.7 -33425 -51070.1 -66781.5 23630.5 22531.1 20108.1 15821.6 8607.58 -3369.02 -21954.6 -43110.9
          -64764.5 -93255 24108.2 23106.5 20932.4 17196.5 11207 1969.84 -11172.8 -26581.5 -43080.1 -60960.1
          24860.4 24007.2 22193.8 19193.4 14652.6 8159.08 -454.505 -10548 -20930.6 -30009 25787.1 25090
          23637.4 21314.7 17966.2 13452.7 7795.24 1402.81 -4816.85 -9714.37 26792.8 26236.3 25095.7 23322.1
          20861.9 17696.9 13919.6 9838.39 6036.49 3193.96 27804 27364.9 26476.9 25126.6 23310.1 21059.6
          18483.2 15812.1 13410.7 11675.2 28769.7 28425 27735.5 26705.8 25354.7 23731.5 21937.1 20141.8
          18577.9 17479.7 29656.3 29386.1 28850.6 28062.7 27049.9 25864 24590.9 23355.5 22309.5 21594
          30442 30229.9 29812.8 29206.8 28441.2 27563.9 26645.1 25776.3 25058.8 24579.5 31112.4 30944.9
          30617.8 30147.4 29562 28903.1 28227.2 27601.7 27095.9 26765.2 31657.8 31523.7 31263.1 30891.9
          30435.5 29929.5 29419.1 28954.9 28585.9 28349.3 32071.7 31961.2 31747.6 31445.6 31078 30675.2
          30274.1 29914.3 29632.1 29454 32349.7 32254.5 32070.8 31812.6 31500.4 31161.3 30826.8 30529.4
          30298.5 30154.6 32489.4 32401.5 32232.4 31995.4 31709.9 31401.2 31098.1 30830.1 30622.9 30494.8
          25352.7 24804.9 23700.4 22027.1 19778.9 16964.7 13602.9 9685.68 5106.89 -433.269 25176.2 24586.1
          23389.5 21561 19082.3 15961.5 12240.5 7951.48 2997.68 -3007.72 24859.6 24186.3 22803.8 20650.2
          17662.2 13826.9 9238.93 4071.84 -1703.9 -8673.24 24477.5 23687.3 22032.7 19366.9 15495.8 10277
          3862.68 -3081.62 -10261.4 -18746.1 24140.8 23221.5 21245.5 17904.7 12669.4 4848.09 -5693.58 -16389.4
          -25428.9 -36018.7 23979.5 22959.4 20708.2 16685.7 9690.2 -2792.38 -23930.8 -43318.3 -51449.9 -64425.9
          24102.3 23059.4 20725.5 16403.8 8192.09 -9851.73 -56583.9 -95426.8 -81489 -95396.6 24546.7 23579.8
          21446.1 17626.8 10940.3 -1182.25 -22471.8 -44922.5 -59685.8 -69750.8 25264.8 24433.9 22643 19588
          14689.5 6993.03 -4461.83 -18398.5 -30826.1 -34399.7 26164.3 25485.3 24055.9 21722.2 18233.7 13268.2
          6632.09 -1101.57 -7822.1 -10553.7 27150.5 26612.3 25502.3 23754.5 21280.7 18008.4 13989.8 9631.23
          5913.1 3903.81 28146.2 27726.8 26876.1 25574.7 23808.3 21596.1 19044.4 16425.2 14203.4 12814.3
          29097 28772.7 28123.5 27152.6 25876 24340 22645.1 20968.7 19552.9 18610.1 29967.1 29716.8
          29220.9 28492 27556.6 26463.7 25295.1 24169.1 23225.4 22582.7 30734.4 30540.5 30159.7 29607.6
          28911.9 28116.9 27286.5 26502.2 25851.7 25407 31385.5 31234 30938.5 30514.6 29988.2 29396.9
          28790.2 28226.4 27764.1 27449.7 31912.4 31792 31558.3 31226.1 30818.1 30365.9 29908.5 29489.1
          29149 28919.9 32310.4 32211.8 32021.1 31751.7 31423.9 31064.2 30704.4 30378 30115.8 29941.2
          32576.9 32492.1 32328.5 32098.4 31820.2 31517.2 31216.4 30945.6 30729.9 30587.6 32710.5 32632.3
          32481.8 32270.7 32016.2 31740.1 31467.2 31222.5 31028.4 30901.1 25744.5 25224.7 24175.2 22580.2
          20425.5 17706.5 14428.7 10586.7 6108.84 791.9 25589 25032.2 23901.8 22168.9 19803.9 16794.2
          13159.6 8936.14 4070.87 -1707.59 25309.9 24680.2 23385.7 21360.8 18524.2 14819 10289.6 5135.25
          -586.307 -7343.7 24972.6 24238.9 22699.4 20202.1 16511.2 11361.8 4731.47 -2492.58 -9639.3 -17973.1
          24673.3 23820.2 21977.6 18814.6 13662 5306.82 -7572.47 -20514.1 -28497.7 -38684.2 24526.6 23571.5
          21439.1 17496.7 9996.08 -6572.32 -50351.6 -88945.1 -74697.4 -83061.2 24634.5 23642.7 21377.5 16917.4
          6751.5 -31514.2 -357343 -520711 -189080 -177457 25043.1 24113.8 22026.3 18120.1 10532 -6802.72
          -55056.9 -114696 -152911 -143789 25716.8 24912.9 23155.5 20059.5 14748.9 5193.95 -13212.9 -46019.1
          -83605.5 -57614.1 26573.3 25915.2 24514.9 22175.8 18521.1 12874 4169.96 -8232.33 -19327.7 -16620.7
          27522 27002 25921.7 24195.1 21684.8 18210.3 13637.3 8273.55 3881.65 2961.8 28485.9 28083.6
          27264 25999.2 24257.5 22027.1 19378.8 16598.3 14334.1 13232.6 29409 29100.9 28482.8 27554.5
          26325.6 24833.1 23169.2 21517.6 20155.5 19317.4 30253.9 30018.6 29552.2 28865.5 27982.1 26946.6
          25836 24765.8 23876.7 23281.8 30997.9 30817.6 30463.3 29949.6 29302 28561.2 27786.4 27053.4
          26444.2 26024 31627.7 31488.1 31215.7 30825.2 30340.2 29795.1 29234.6 28711.5 28278.5 27977.3
          32135.9 32025.8 31812.1 31508.2 31134.9 30720.7 30300.3 29912.1 29592.8 29370.8 32518.9 32429.2
          32255.6 32010.5 31711.8 31383.5 31053.5 30751.4 30504.6 30334 32774.9 32697.9 32549.5 32340.8
          32088 31811.8 31536.1 31285.4 31081.7 30941.8 32903 32832.2 32695.9 32504.6 32273.6 32022.1
          31772 31545.3 31361.7 31236.2 26180.5 25689.3 24696.6 23184.3 21133 18528.6 15366.6 11641.3
          7312.28 2263.06 26044.8 25521.8 24459.1 22826.7 20589.8 17722.8 14224.8 10115.2 5373.83 -152.25
          25801.8 25215.9 24011.7 22126.8 19478.6 15994.1 11666.1 6596.77 877.54 -5729.05 25508.4 24832.9
          23418.2 21129.4 17755.6 13046.1 6872.52 -457.851 -8248.97 -16959.9 25248.4 24469.5 22795.2 19949.6
          15403.4 8269.12 -2504.39 -16828.7 -29972 -43335.9 25122.1 24253.2 22330.8 18861 12652.4 774.573
          -23680.7 -75374.5 -110344 -136427 25221 24315.8 22274.7 18418.6 10751.5 -7954.79 -72881.3 -466861
          -548642 -548826 25591.7 24733 22816.1 19290.1 12742.8 -803.071 -34274.6 -137756 -583281 -552375
          26210.5 25457.6 23811.1 20904.8 15858.7 6132.13 -20070.6 -169215 -474389 -124404 27008.5 26385.8
          25057.2 22821.1 19255.8 13412.2 2734.91 -20514 -48959.2 -26700.3 27903 27408.5 26377.6 24718.7
          22269.8 18763.7 13795.7 7110.59 1249.73 1830.24 28820.2 28437.1 27654.7 26441.4 24754.9 22557.8
          19869.4 16925.3 14519.1 13603.6 29703.9 29411.1 28822.8 27936.6 26757.4 25313.2 23683.6 22044.9
          20696.7 19906.7 30515.8 30293.1 29851.3 29199.8 28359.4 27370.3 26304 25271.2 24412.3 23841.3
          31231.9 31062.1 30728.6 30244.4 29633.1 28932.3 28197 27498.6 26915.5 26510.1 31838.3 31707.7
          31452.7 31087 30632.2 30120.1 29592.1 29097 28684 28392.1 32327.6 32225.1 32026.1 31743
          31394.9 31007.9 30613.7 30247.6 29943.2 29727.3 32696 32612.8 32452 32224.7 31947.4 31641.8
          31333.3 31048.9 30813.6 30647 32942 32871 32733.9 32541 32306.9 32050.5 31793.3 31557.4
          31363.2 31226.1 33065.1 32999.9 32874.2 32697.7 32484.2 32251 32017.8 31804.6 31629.5 31506.3
          26633.2 26170.7 25235.5 23808.8 21868.5 19394.6 16374.1 12797.9 8645.66 3865.95 26516.4 26027.3
          25033.6 23506.7 21411.1 18714.2 15397.8 11458.9 6883.08 1597.46 26308.1 25766.8 24656.5 22923.2
          20493.8 17294.4 13281.7 8465.4 2862.84 -3636.05 26058.2 25443.7 24163.9 22112.8 19129 15016.6
          9617.63 2921.7 -4943.89 -14168.1 25839.6 25142.2 23660.1 21196.6 17403.9 11750.9 3594.3 -7534.49
          -21396 -38979.8 25738.3 24970.1 23302.8 20415.3 15644 7682.96 -5887.79 -29359.4 -66494.6 -128692
          25833.2 25036 23282.7 20158.6 14697.1 4521.84 -17071.7 -76898.2 -263809 -563422 26166.6 25402.6
          23729.8 20780.1 15740 6783.81 -10447.2 -47979.8 -148487 -539549 26725.2 26044.3 24573.9 22046.6
          17889.5 10801.6 -2671.49 -32687.4 -79172.8 -97491.8 27454.6 26882.3 25669.6 23658.3 20541.4 15733.8
          8129.43 -3740.67 -16362.6 -19147 28283.1 27822.3 26865.4 25336.2 23107.8 19996.3 15805.8 10651.8
          6034.21 4271.07 29142.4 28782.1 28047.2 26911 25339.4 23309.4 20860.3 18220.4 15974.5 14746.8
          29977.9 29700.9 29144.6 28307.1 27194.2 25833.6 24301.2 22756.7 21454 20619.4 30750.8 30539.5
          30120.3 29502.2 28704.5 27765.1 26750.5 25763 24930 24358.4 31435.7 31274.6 30957.9 30498.1
          29917.1 29250.1 28548.2 27878.5 27314 26914.8 32017.4 31893.6 31652 31305.1 30873.3 30386.2
          29882.5 29407.9 29008.9 28723.2 32487.5 32390.6 32202.5 31934.7 31605 31237.6 30862.3 30511.9
          30218.4 30007.3 32841.8 32763.5 32612 32397.5 32135.6 31846.2 31553.1 31281.4 31054.8 30891.8
          33078.6 33011.8 32883 32701.5 32480.9 32238.7 31994.8 31769.8 31582.8 31448.6 33197 33135.8
          33017.9 32852.1 32651.2 32431.2 32210.4 32007.2 31838.7 31717.9 27077.7 26642.8 25762.8 24419.6
          22589.6 20249 17378.8 13966.7 10007.2 5500.81 26978.3 26521.6 25594.1 24169.8 22214.2 19690.9
          16569.8 12830.4 8457.03 3428.43 26801.8 26303.1 25282.8 23695.9 21480 18564.2 14883.5 10388.4
          5031.58 -1261.68 26592.3 26036.1 24884.9 23059.1 20438.5 16869.9 12188.3 6234.48 -1175.85 -10316.3
          26412.8 25793.3 24492.6 22376.7 19222.1 14698.1 8360.53 -389.022 -12536.1 -30140.8 26336.2 25664.5
          24233.8 21844.5 18126.8 12438.8 3669.44 -10392.6 -35684.5 -97363.5 26428.7 25736.2 24248.8 21722
          17669.7 11133.8 40.8873 -21776.1 -85359.3 -523154 26727.5 26059.4 24626.8 22203.2 18347.9 12235
          2290.24 -14811.7 -47812 -127415 27227 26622.6 25338.5 23201.9 19887.7 14809.7 6933.43 -5257.23
          -21521.3 -38517.9 27885.8 27368.5 26284.8 24526.9 21908.9 18143 12858.9 5907.93 -1494.11 -6974.72
          28644.1 28220.2 27346.1 25968 24005.8 21367 18008.4 14121 10442.9 7937.94 29440.8 29104.3
          28420.7 27371.5 25937.1 24116.1 21966.4 19679.5 17634.1 16228.3 30224.3 29962.6 29437.9 28650.8
          27610.1 26345.9 24930.3 23500 22254 21379.1 30955.5 30754.3 30355.4 29767.8 29010.5 28119.9
          27157.7 26215.7 25406.2 24828.8 31607.9 31453.8 31150.9 30710.9 30154.9 29515.9 28842 28195.5
          27644.7 27248.2 32164.8 32046.1 31814.4 31481.6 31067 30598.3 30112.4 29652.5 29263.3 28981.7
          32616.3 32523.5 32343.2 32086.2 31769.4 31415.7 31053.3 30713.7 30427.7 30220.6 32957.4 32882.5
          32737.4 32531.9 32280.5 32002.2 31719.6 31456.7 31236.2 31076.5 33185.6 33121.8 32998.8 32825.1
          32613.9 32381.4 32146.6 31929.2 31747.6 31616.2 33299.8 33241.5 33129 32970.6 32778.3 32567.5
          32355.1 32159 31995.5 31877.3 27493 27082.7 26252.5 24984.3 23254.2 21035.7 18305.9 15051.8
          11282.3 7047.55 27408.3 26980.3 26111.8 24778.4 22946.8 20578.6 17636.3 14089.8 9927.18 5173.12
          27258.8 26797.4 25855.2 24394.4 22359.9 19683.8 16290.6 12102.7 7046.77 1072.57 27083.3 26577.1
          25534.6 23894.5 21562.8 18412.7 14285 8981.19 2250.58 -6185.37 26936.3 26382.3 25229.9 23384.9
          20693.3 16926.3 11752.9 4670.28 -5143.02 -18893.1 26879.4 26287.3 25044.2 23020.2 19989.6 15582.2
          9177.88 -403.54 -15811.2 -43026.1 26968.2 26362 25082.1 22977.3 19774.1 14994.7 7747.66 -4026.43
          -26921.3 -89383 27235.7 26648 25408.8 23375.7 20296.2 15749.4 9037.12 -1076.33 -17051.3 -43667.1
          27681.2 27142.8 26014.7 24185.8 21466.9 17567.5 12084.9 4590.64 -4964.88 -15953.4 28274.2 27805.4
          26833.5 25286.6 23053.1 19987.9 15956.3 10983.7 5546.93 548.789 28965.6 28574.5 27773.4 26525.6
          24782.5 22501.6 19692.9 16512.7 13367.9 10814.4 29701.9 29386.2 28747.3 27773.1 26454.7 24802.4
          22876.9 20831 18930.7 17480.9 30434.7 30185.7 29687.6 28942.4 27961.2 26774.6 25449.3 24102.6
          22899 22007.4 31125.6 30932.2 30549.1 29985.1 29258.9 28405 27480.9 26570.3 25775.9 25195.2
          31746.9 31597.8 31304.7 30878.9 30340.2 29720.1 29064.4 28432.1 27888.9 27494 32280.5 32165.3
          31940.2 31616.6 31212.9 30755.7 30280.2 29828.6 29444.7 29166.3 32715 32624.8 32449.4 32199.2
          31890.3 31544.7 31189.7 30856.3 30574.8 30370.9 33044.2 32971.4 32830.4 32630.4 32385.4 32113.8
          31837.4 31579.6 31363.2 31206.5 33264.8 33203 33083.5 32914.8 32709.3 32482.7 32253.5 32040.9
          31863 31734.3 33375.4 33318.8 33209.7 33056 32869.2 32664 32457 32265.5 32105.6 31989.9
          27862.7 27473 26684.2 25478.4 23830.8 21713.2 19099.4 15976.8 12367.9 8370.78 27789.4 27385.1
          26564.7 25304.9 23572.7 21327.6 18526.5 15133.4 11140.5 6616.16 27660.6 27229 26348.8 24985.9
          23089 20590.6 17407.3 13444.4 8611.48 2877.8 27510.8 27043.3 26083.6 24580.4 22453.2 19587.4
          15825.1 10950 4675.31 -3316.98 27387.1 26882.4 25838.4 24182.2 21793.6 18489.5 13991.2 7856.34
          -643.538 -12654.7 27342.6 26808.9 25697.8 23915 21299.3 17590.3 12356.1 4810.44 -6645.36 -25507.4
          27425 26880.8 25743.9 23908.2 21189.9 17283.9 11662.6 3280.12 -10410.4 -37381.5 27663.8 27134.2
          26028.6 24246.7 21618.3 17874.4 12593.7 5087.42 -5868.28 -22588.9 28062.4 27571.8 26552.6 24924.7
          22558.5 19268.3 14815.5 8950.03 1534.45 -7264.77 28598.2 28164.6 27271 25863.9 23863.9 21175.7
          17720.1 13515.2 8815.33 4212.84 29231.1 28863.5 28113 26951.3 25342.7 23259.6 20717.2 17833.5
          14899.7 12381.3 29914.1 29612.8 29003.9 28077.9 26828.8 25268 23449.3 21500.7 19647.7 18183.2
          30602.1 30361.5 29880 29160 28211.6 27063.4 25775.9 24455.7 23257.2 22354.5 31257.4 31068.8
          30694.6 30143.3 29432.1 28593.2 27680.9 26775.5 25978.7 25394.1 31851.6 31705.2 31417.1 30997.8
          30466.1 29852.1 29199.9 28568 28023.1 27628.5 32365 32251.5 32029.5 31709.8 31309.9 30855.8
          30382 29930.7 29546.9 29270.4 32785 32696 32522.9 32275.5 31969.4 31626.3 31273 30940.7
          30660.5 30459.1 33104.2 33032.5 32893.3 32695.8 32453.5 32184.4 31910 31654.1 31439.6 31285.4
          33318.6 33257.7 33140 32973.7 32770.8 32546.9 32320.1 32109.8 31934.1 31807.8 33426.2 33370.5
          33263.2 33111.9 32927.8 32725.3 32520.9 32331.9 32174.2 32060.9 28175.9 27802.3 27045.7 25887.8
          24302.9 22260.6 19732.2 16704.2 13208.4 9380.49 28110.6 27724.4 26940.3 25735.2 24075.3 21917.2
          19212.1 15915.8 12017.5 7609.34 27996.1 27586.4 26750.9 25456.8 23653.3 21269.5 18211.5 14362.3
          9595.11 3848.26 27863 27422.9 26520 25107.2 23108.1 20407.8 16836.9 12141.6 5944.34 -2253.83
          27753.2 27281.7 26308.5 24769.2 22555.2 19494.8 15311.9 9539.92 1340.8 -10830.1 27713.5 27217.6
          26188.7 24546.1 22151.2 18774.9 14028.5 7193.29 -3231.46 -20881.6 27786.1 27280.8 26229.1 24542
          22064.3 18538 13518.1 6150.19 -5578.8 -28452.2 27998.7 27504.3 26475.7 24827.2 22412.1 18996.4
          14207.9 7436.12 -2399.58 -17508.2 28357.5 27894.9 26936 25409.5 23198.6 20131.6 15975.7 10457.3
          3365.05 -5165.85 28846.2 28432.2 27579.4 26237.3 24328.9 21755.4 18417.3 14280.7 9531.6 4832.11
          29431.5 29075.7 28349 27222.1 25655.7 23612.4 21084.7 18156.4 15102.2 12478 30071.2 29776.1
          29178.9 28267.7 27031.5 25472.7 23630.6 21619.7 19673.4 18148 30723 30485.1 30008.2 29292.1
          28343.2 27183.8 25867.8 24499.3 23244.7 22313.5 31349.8 31162 30788.9 30236.9 29520.7 28669.5
          27734.9 26798.8 25972.1 25376.2 31922.3 31776.1 31487.6 31066.4 30529.7 29906.3 29239.6 28590.1
          28030.6 27632.8 32419.9 32306.3 32083.8 31762.4 31359 30898.8 30416.7 29956.3 29565.9 29289.7
          32828.6 32739.6 32566.1 32317.8 32009.7 31663.3 31305.9 30969.3 30686.8 30487 33140.1 33068.4
          32929.3 32731.6 32488.5 32218 31942 31684.6 31469.9 31317.7 33349.7 33289 33171.6 33005.5
          32802.7 32578.6 32351.5 32141.1 31966.2 31842 33454.9 33399.6 33292.7 33141.8 32958.2 32756
          32552 32363.5 32207 32095.7 28427.3 28065.4 27332 26208.4 24667.8 22677.8 20207.5 17242.2
          13817.9 10093.9 28366.9 27993.4 27234.7 26067.1 24455.3 22352.7 19704.5 16456.6 12584.3 8171.87
          28260.8 27865.8 27059.7 25809.3 24061.8 21740.7 18738.5 14907.6 10053.6 3978.36 28136.7 27713.8
          26845.7 25485.2 23553.6 20927.9 17414.5 12694.3 6205.45 -3086.16 28032.8 27580.8 26647.4 25168.8
          23034.7 20062.8 15943.5 10107.7 1370.45 -13153.8 27991.3 27516 26529.2 24951.4 22641.4 19358.2
          14673.5 7755.85 -3256.52 -23391.8 28051.3 27565.3 26553 24924.6 22519.5 19059.9 14047.1 6499.57
          -5889.49 -30663.8 28239.9 27761.1 26763 25155.9 22780.3 19366.5 14455.2 7250.86 -3638.55 -20627.3
          28565.8 28113.5 27172.8 25664.9 23453.4 20318.5 15921.9 9791.43 1478.87 -8622.52 29017.3 28608.2
          27761.8 26418.1 24478.3 21795.6 18176.3 13435.9 7650.76 1894.24 29566 29211 28482.2 27341.5
          25730.6 23576.2 20811.4 17450.2 13777 10675.5 30173.3 29876.5 29272.9 28343.6 27064.2 25415.6
          23408.4 21137.6 18877.9 17163.1 30798.4 30557.9 30073.4 29340.2 28356.5 27133.7 25714.8 24204.2
          22801.7 21798.4 31404.4 31214 30834.1 30268.3 29527.2 28634.8 27640.2 26629.9 25735.1 25112.6
          31961.6 31813.1 31519.3 31088.2 30534.9 29886.2 29185.9 28498.6 27908 27501.1 32447.9 32332.7
          32106.4 31778.4 31364.6 30889.7 30389.2 29909.9 29505.6 29227.2 32848.8 32758.6 32582.7 32330.3
          32016 31661.3 31294.2 30948.4 30659.9 30460.5 33155 33082.6 32942 32741.8 32495.3 32220.3
          31939.2 31677.5 31460.6 31309.8 33361.3 33300.2 33181.9 33014.5 32809.6 32583.1 32353.5 32141.2
          31965.7 31843.2 33465 33409.4 33301.9 33150.1 32965.2 32761.5 32555.9 32366.5 32210.2 32100.6
          28616 28262 27544.4 26443.9 24933 22978.9 20550.2 17634.3 14274.2 10647.2 28558.1 28192.9
          27450.6 26306.8 24725 22656.6 20043.6 16827 12973.2 8549.67 28455.8 28069.7 27281.1 26055.6
          24337.8 22046.2 19063 15216.4 10247.5 3767.11 28334.9 27921.5 27071.6 25736 23831.5 21224.1
          17695.6 12860.8 5936.22 -5022.69 28230.8 27788.3 26872.4 25415.9 23299.7 20321 16120.4 9985.8
          176.34 -19396.4 28183.1 27716 26743.2 25178.9 22866 19525.9 14638.3 7122.04 -5736.14 -33249.3
          28229.2 27748.6 26743.1 25112.2 22668.5 19068.6 13649.7 4991.87 -10529.8 -45206.9 28396.4 27918.9
          26917.7 25287.2 22828.6 19174.9 13622.8 4749.96 -10361.4 -36726.4 28695.8 28240.5 27286.8 25736.5
          23406.3 19964.2 14799.6 6797.41 -5770.66 -23220.6 29119.2 28703.8 27837.6 26441.2 24370.6 21377.6
          17039.4 10682.6 1578.68 -8986.98 29641.6 29278.7 28527.9 27334.8 25606.9 23201.5 19919.3 15559.3
          10241.7 5520.08 30226.4 29921.8 29297.7 28323.8 26954.2 25131.3 22807 20014.7 17059.7 14846.2
          30833.8 30586.4 30085.1 29318 28271.3 26938.4 25341.7 23578 21893.5 20734.7 31426.5 31230.6
          30838 30248.4 29466.1 28508.1 27418.1 26287.7 25277.5 24604.5 31973.9 31821.4 31518.7 31071.7
          30492.8 29806.3 29055.8 28311.5 27672.4 27248.9 32453.4 32335.4 32103.2 31765 31335.7 30839.5
          30312.8 29806.1 29381 29097.6 32849.5 32757.5 32577.8 32319 31995.7 31629.1 31248.2 30889.2
          30591.8 30391.5 33152.5 33079 32936 32731.9 32480 32198.3 31910.1 31642 31421.3 31271.1
          33356.9 33295 33175.2 33005.3 32797.1 32566.7 32333.2 32117.6 31940.7 31819.3 33459.7 33403.5
          33294.8 33141.2 32953.9 32747.5 32539.3 32347.9 32191 32082.8 28743.7 28394.9 27687.3 26601.6
          25110.5 23182.2 20789.1 17927.8 14660.9 11199.1 28686.7 28326.6 27594.2 26464.8 24901.6 22856.3
          20274.5 17107.4 13346.3 9110.52 28585.4 28204.2 27425 26212.3 24509.4 22233.5 19268.1 15452.2
          10563.6 4317.99 28464.2 28055.1 27213 25886.3 23987.8 21377.8 17831.8 12966.7 6042.08 -4666.58
          28356.7 27917.2 27005.5 25549.6 23420.9 20399.1 16093.4 9740.91 -455.926 -20401.4 28301 27834.5
          26859.6 25281.2 22922.6 19460.8 14273.2 6015.77 -8831.25 -42833.9 28333.8 27850.3 26833.5 25167.7
          22628.9 18782.1 12709.7 2145.07 -20317.7 -93850.5 28483.2 27998.8 26976 25287.3 22678.7 18634.7
          11998.2 -283.77 -27983 -106185 28762.2 28296.6 27312.9 25686.8 23169.1 19249.8 12782.4 814.054
          -25247.1 -88531.2 29165.6 28737.9 27837.7 26360.1 24098.5 20641.7 15102.9 5330.5 -14437.7 -58166.2
          29670.2 29295 28511.6 27245.2 25357.2 22598.3 18519 12332.4 3018.67 -7917.9 30241 29925.3
          29273.7 28241.8 26755.4 24701.6 21929.9 18310.2 14026.8 10540 30837.8 30581.6 30059.1 29250.1
          28125.9 26655.2 24826.2 22705.5 20573.3 19116 31423 31220.6 30812.8 30194.9 29364.2 28327.9
          27120.8 25835.8 24665.4 23912.1 31965.3 31808.2 31495.2 31030 30421.8 29692 28882.8 28069.8
          27369.3 26922.1 32441.3 32320.2 32081.3 31731.7 31285.2 30765.2 30208.9 29670.8 29220.8 28930.2
          32835.1 32741.1 32557.1 32291.3 31957.9 31578.3 31182.3 30808.5 30500.6 30298.5 33136.6 33061.8
          32916 32707.7 32449.8 32160.9 31864.8 31589.5 31364.2 31214.2 33340.1 33277.3 33155.7 32982.9