% Model:              Onedradial_solutes.mph
% Version:            COMSOL 5.5.0.306
% Date:               Apr 5 2020, 18:58
% Dimension:          1
% Nodes:              1741
% Expressions:        49
% Description:        Liniengraph
% R                       Height                   Height                   Height                   Height                   Height                   Height                   Height                   Height                   Height                   Height                   Height                   Height                   Height                   Height                   Height                   Height                   Height                   Height                   Height                   Height                   Height                   Height                   Height                   Height                   Height                   Height                   Height                   Height                   Height                   Height                   Height                   Height                   Height                   Height                   Height                   Height                   Height                   Height                   Height                   Height                   Height                   Height                   Height                   Height                   Height                   Height                   Height                   Height                   Height
0                         0.00983340280875681      4.5565429738224453E-4    3.2241335203907754E-4    2.623443358002991E-4     2.258342477534218E-4     1.9872371744610493E-4    1.7522677502766106E-4    1.5211065295477673E-4    1.3626400267270422E-4    1.222835259758798E-4     1.087986305264721E-4     9.750647316167501E-5     8.658793988647864E-5     7.846204719881983E-5     6.778988759766863E-5     6.399030038901029E-5     5.5637878561902194E-5    5.019847002749275E-5     4.605558220297599E-5     3.8577166630439434E-5    3.3594396538942006E-5    3.1263207637564005E-5    2.6448701343038412E-5    2.247657850766405E-5     1.5270445740533708E-5    1.46060177390232E-5      9.873349132086103E-6     5.797224044041288E-6     5.7591692590970025E-6    5.561762407642139E-6     5.367313059933362E-6     5.18611036391458E-6      5.024247697583678E-6     4.881945330135424E-6     4.755752272266131E-6     4.643403047322858E-6     4.543133829392068E-6     4.451980093903825E-6     4.370521858541077E-6     4.294815685870503E-6     4.22604946761419E-6      4.1627124778676745E-6    4.104229245396886E-6     4.049957970997565E-6     3.999326686287484E-6     3.952064256938811E-6     3.9077210912829025E-6    3.866056666826308E-6     3.826773561734863E-6
3.333333333333348E-4      0.009902667589743484     7.507910672350374E-4     5.541490124643096E-4     4.693444060065616E-4     4.192757895726086E-4     3.835190403042325E-4     3.523626495992546E-4     3.2303333366888394E-4    3.0340716434611615E-4    2.8722628488494573E-4    2.720718140888255E-4     2.591168619941555E-4     2.470032522264705E-4     2.3877159338265652E-4    2.2935988811664847E-4    2.2522936998627693E-4    2.1761371800419355E-4    2.1296884122573844E-4    2.0906775576387318E-4    2.0318308783440805E-4    2.037941714520204E-4     2.093929574283383E-4     2.048113749188421E-4     1.81794953265498E-4      1.7405164565827244E-4    2.0648432266150117E-4    2.1750427376141912E-4    2.561361168057313E-4     2.678692306934902E-4     2.6920452145858925E-4    2.676799405083446E-4     2.6476306194084275E-4    2.613772999831498E-4     2.578872245450601E-4     2.5442898988097733E-4    2.5109704090643713E-4    2.479280199142725E-4     2.44915178059214E-4      2.4204117680462186E-4    2.3931630684704175E-4    2.367358581184093E-4     2.3429138986360028E-4    2.3197125034310948E-4    2.2976949723451116E-4    2.2767751255273557E-4    2.2568718750835763E-4    2.2379054299672758E-4    2.219799054549199E-4     2.2024913534068774E-4
6.666666666666661E-4      0.009971932370730158     0.0010459278370878301    7.858846728895418E-4     6.763444762128241E-4     6.127173313917953E-4     5.683143631623601E-4     5.294985241708481E-4     4.939560143829911E-4     4.705503260195281E-4     4.5216904379401164E-4    4.353449976511789E-4     4.20727250826636E-4      4.074185645664623E-4     3.990811395664932E-4     3.909298886356283E-4     3.864684395835436E-4     3.795895574464849E-4     3.757392124239841E-4     3.7207992932477034E-4    3.677890090383767E-4     3.7399394636509874E-4    3.875227072191126E-4     3.831740484946458E-4     3.4111332802333195E-4    3.328328455760112E-4     3.983626275839792E-4     4.2513519839075216E-4    5.064750095674212E-4     5.299792921278834E-4     5.328472805095363E-4     5.299925679567559E-4     5.243400135177709E-4     5.177303522687159E-4     5.108925037599848E-4     5.041022274896885E-4     4.975506787655514E-4     4.913129059991529E-4     4.853783760245241E-4     4.7971183175070267E-4    4.74337798008213E-4      4.6924566676920444E-4    4.644200672493329E-4     4.5983827144082203E-4    4.5548903649802477E-4    4.5135569841918367E-4    4.4742231075977647E-4    4.4367336490217223E-4    4.400937542430135E-4     4.366714971196406E-4
0.0010000000000000009     0.010041197151716832     0.001341064606940623     0.001017620333314774     8.833445464190866E-4     8.061588732109822E-4     7.531096860204877E-4     7.066343987424417E-4     6.648786950970983E-4     6.3769348769294E-4       6.171118027030776E-4     5.986181812135323E-4     5.823376396591165E-4     5.678338769064541E-4     5.593906857503299E-4     5.524998891546081E-4     5.477075091808103E-4     5.415653968887763E-4     5.385095836222298E-4     5.350921028856676E-4     5.323949302423453E-4     5.441937212781772E-4     5.656524570098869E-4     5.615367220704495E-4     5.004317027811659E-4     4.9161404549375E-4       5.902409325064572E-4     6.327661230200852E-4     7.568139023291112E-4     7.920893535622766E-4     7.964900395604834E-4     7.923051954051672E-4     7.839169650946991E-4     7.740834045542821E-4     7.638977829749096E-4     7.537754650983998E-4     7.440043166246657E-4     7.346977920840334E-4     7.258415739898343E-4     7.173824866967835E-4     7.093592891693843E-4     7.017554754199996E-4     6.945487446350655E-4     6.877052925385347E-4     6.812085757615384E-4     6.750338842856318E-4     6.691574340111953E-4     6.635561868076169E-4     6.582076030311071E-4     6.530938588985935E-4
0.0013333333333333357     0.01002406598692265      0.0016195592148486888    0.0012367622110380885    0.001079194158694968     9.891611998197375E-4     9.278944135839104E-4     8.741636458280714E-4     8.264619430721362E-4     7.956520645403922E-4     7.728590713807782E-4     7.526437105153649E-4     7.34733917269327E-4      7.19037939606466E-4      7.101052144328874E-4     7.036845540811882E-4     6.988092821387322E-4     6.930560532092862E-4     6.904922434002174E-4     6.878980678377409E-4     6.867796220315458E-4     7.000672253620807E-4     7.221882814420328E-4     7.202365435844088E-4     6.683482801296377E-4     6.589147248154591E-4     7.604869537359973E-4     8.090074743838305E-4     9.31034909750412E-4      9.763943574454607E-4     9.876085211805706E-4     9.875249155043252E-4     9.816141267002115E-4     9.731591288119474E-4     9.636311895663249E-4     9.536790382902848E-4     9.437647452879451E-4     9.341032552646822E-4     9.247343184229094E-4     9.15639038081755E-4      9.069003533595348E-4     8.9852777212749E-4       8.905168943962394E-4     8.828458660181279E-4     8.755095277028904E-4     8.68493033585249E-4      8.617743643219062E-4     8.553367622042258E-4     8.49157907342964E-4      8.43223940696279E-4
0.001666666666666667      0.010006934822128468     0.0018980538227567542    0.0014559040887614028    0.0012750437709708495    0.0011721635264284925    0.001102679141147333     0.0010416928929137012    9.88045191047174E-4      9.536106413878443E-4     9.286063400584789E-4     9.066692398171974E-4     8.871301948795374E-4     8.702420023064778E-4     8.608197431154449E-4     8.548692190077682E-4     8.49911055096654E-4      8.445467095297961E-4     8.424749031782049E-4     8.407040327898142E-4     8.411643138207462E-4     8.559407294459842E-4     8.787241058741787E-4     8.78936365098368E-4      8.362648574781094E-4     8.262154041371682E-4     9.307329749655373E-4     9.852488257475758E-4     0.0011052559171717128    0.0011606993613286448    0.0011787270028006576    0.001182744635603483     0.0011793112883057236    0.0011722348530696126    0.0011633645961577402    0.0011535826114821698    0.0011435251739512246    0.0011335087184453307    0.0011236270628559846    0.0011138955894667265    0.001104441417549685     0.0010953000688349803    0.0010864850441574133    0.0010779864394977212    0.0010698104796442423    0.001061952182884866     0.0010543912946326171    0.0010471173376008346    0.001040108211654821     0.0010333540224939646
0.0020000000000000018     0.009989803657334286     0.0021765484306648197    0.0016750459664847174    0.001470893383246731     0.0013551658530372478    0.0012774638687107556    0.001209222139999331     0.001149628439022212     0.0011115692182352966    0.0010843536087361797    0.00106069476911903      0.0010395264724897479    0.0010214460650064896    0.0010115342717980024    0.0010060538839343483    0.0010010128280545758    9.96037365850306E-4      9.944575629561925E-4     9.935099977418876E-4     9.955490056099466E-4     0.0010118142335298877    0.0010352599303063246    0.0010376361866123271    0.0010041814348265812    9.935160834588775E-4     0.0011009789961950775    0.001161490177111321     0.0012794769245930136    0.0013450043652118288    0.0013698454844207448    0.0013779643557026407    0.001377008449911236     0.001371310577327278     0.0013630980027491556    0.0013534861846740548    0.001343285602614504     0.0013329141816259794    0.0013225198072890597    0.001312152140851698     0.0013019824817398354    0.0012920723655424707    0.0012824531939185872    0.0012731270129773145    0.0012641114315855944    0.0012554113321844832    0.001247008224943328     0.0012388979129974436    0.0012310585159666777    0.0012234841042916501
0.0023333333333333366     0.009994044292178117     0.0024386765372595293    0.0018823128618007542    0.0016563434688202795    0.0015284669598802792    0.0014429763175241139    0.0013679038863958282    0.0013026682950933292    0.0012611396948467534    0.0012317231563543063    0.0012063143315445887    0.001183540803141601     0.001164269079441172     0.0011536532991622617    0.0011481653240755906    0.0011430456737108242    0.0011382225075820148    0.0011368838998498173    0.0011367048098397982    0.001139990467094479     0.0011564225027060674    0.0011787450568978568    0.0011832457932321337    0.001161805203008314     0.0011610949016826347    0.0012551519952760729    0.0013172095659510232    0.001429611263520134     0.0014969164333076166    0.001525958539152371     0.0015376399943283078    0.0015396428195862217    0.0015362301766893057    0.001529740683984515     0.0015214123950464755    0.0015121625597086096    0.0015024851999656359    0.0014925783658228426    0.001482526415851458     0.0014725388321819221    0.001462702638224191     0.001453069593688933     0.0014436575647817861    0.001434498526492999     0.0014256105332668665    0.001416980096525188     0.0014086124006639723    0.0014004885054509188    0.0013926092277321523
0.002666666666666668      0.009998284927021948     0.0027008046438542384    0.002089579757116791     0.001841793554393828     0.0017017680667233107    0.0016084887663374717    0.0015265856327923253    0.0014557081511644462    0.0014107101714582102    0.001379092703972433     0.001351933893970147     0.001327555133793454     0.0013070920938758547    0.0012957723265265208    0.0012902767642168328    0.0012850785193670726    0.0012804076493137233    0.0012793102367434418    0.0012798996219377087    0.0012844319285790112    0.0013010307718822468    0.0013222301834893888    0.0013288553998519403    0.0013194289711900469    0.001328673719906392     0.001409324994357068     0.0014729289547907253    0.0015797456024472542    0.0016488285014034044    0.001682071593883997     0.0016973156329539746    0.0017022771892612073    0.0017011497760513333    0.0016963833652198742    0.001689338605418896     0.001681039516802715     0.0016720562183052924    0.0016626369243566252    0.0016529006908512177    0.0016430951826240084    0.001633332910905911     0.0016236859934592787    0.0016141881165862575    0.0016048856214004033    0.0015958097343492497    0.0015869519681070477    0.001578326888330501     0.0015699184949351597    0.001561734351172654
0.0030000000000000027     0.01000252556186578      0.002962932750448948     0.0022968466524328278    0.0020272436399673766    0.0018750691735663421    0.0017740012151508298    0.0016852673791888225    0.0016087480072355634    0.001560280648069667     0.0015264622515905597    0.0014975534563957057    0.0014715694644453071    0.0014499151083105372    0.0014378913538907801    0.0014323882043580749    0.001427111365023321     0.001422592791045432     0.0014217365736370665    0.0014230944340356193    0.0014288733900635435    0.0014456390410584265    0.0014657153100809208    0.001474465006471747     0.00147705273937178      0.0014962525381301492    0.0015634979934380632    0.0016286483436304276    0.0017298799413743744    0.0018007405694991923    0.0018381846486156229    0.0018569912715796417    0.0018649115589361928    0.0018660693754133611    0.0018630260464552336    0.0018572648157913166    0.0018499164738968207    0.0018416272366449488    0.0018326954828904079    0.0018232749658509777    0.0018136515330660948    0.001803963183587631     0.0017943023932296246    0.0017847186683907289    0.0017752727163078076    0.0017660089354316329    0.0017569238396889077    0.0017480413759970298    0.0017393484844194006    0.001730859474613156
0.0033333333333333375     0.01000147506566711      0.003208786219848151     0.002492851325768593     0.002202934667419984     0.0020393085241055915    0.0019308769748730475    0.00183575209532507      0.0017539284350552278    0.0017021503821744754    0.001666156069436338     0.0016354892953728726    0.001607925987644332     0.0015850854511697968    0.0015722420214434795    0.0015664406412209224    0.0015609833786836504    0.0015564377054478056    0.001555633665928937     0.0015575081064516806    0.0015641011222233354    0.0015806869227392832    0.0015997423785448204    0.0016102013309057187    0.0016208518364259484    0.0016489353403217261    0.0017048278438767323    0.0017693305412032573    0.0018661829576364578    0.0019350255401540445    0.0019737594216807292    0.0019946219107903423    0.002004723410979951     0.002007905842865207     0.0020066275340111708    0.002002372705489605     0.0019962919932939357    0.001989065910533678     0.0019810254559516982    0.0019723477321968667    0.0019633369916409443    0.001954149660475924     0.0019448939568993673    0.0019356331455660722    0.0019264395919120607    0.0019173691183802797    0.001908424275338884     0.0018996376068708277    0.001890999831371849     0.0018825319858351232
0.0036666666666666688     0.010000424569468438     0.0034546396892473534    0.0026888559991043587    0.002378625694872591     0.00220354787464484      0.002087752734595265     0.0019862368114613176    0.001899108862874892     0.0018440201162792835    0.001805849887282116     0.001773425134350039     0.0017442825108433568    0.0017202557940290564    0.001706592688996179     0.0017004930780837699    0.0016948553923439792    0.0016902826198501792    0.0016895307582208072    0.0016919217788677419    0.0016993288543831271    0.0017157348044201397    0.00173376944700872      0.0017459376553396902    0.0017646509334801165    0.0018016181425133029    0.0018461576943154014    0.0019100127387760867    0.0020024859738985413    0.0020693105108088965    0.0021093341947458354    0.0021322525500010424    0.0021445352630237086    0.002149742310317052     0.002150229021567108     0.002147480595187893     0.00214266751269105      0.0021365045844224067    0.002129355429012988     0.002121420498542756     0.0021130224502157935    0.002104336137364217     0.0020954855205691097    0.002086547622741415     0.0020776064675163135    0.0020687293013289267    0.00205992471098886      0.002051233837744626     0.002042651178324297     0.0020342044970570903
0.0040000000000000036     0.009999374073269769     0.0037004931586465564    0.002884860672440124     0.002554316722325198     0.0023677872251840894    0.0022446284943174826    0.002136721527597565     0.0020442892906945564    0.001985889850384092     0.0019455437051278943    0.0019113609733272055    0.0018806390340423817    0.001855426136888316     0.0018409433565488784    0.0018345455149466174    0.0018287274060043083    0.0018241275342525528    0.0018234278505126775    0.0018263354512838032    0.001834556586542919     0.0018507826861009964    0.0018677965154726196    0.0018816739797736617    0.0019084500305342846    0.00195430094470488      0.0019874875447540704    0.0020506949363489164    0.0021387889901606245    0.0022035954814637487    0.0022449089678109415    0.0022698831892117425    0.0022843471150674663    0.0022915787777688977    0.002293830509123045     0.0022925884848861815    0.0022890430320881647    0.0022839432583111356    0.002277685402074278     0.0022704932648886446    0.0022627079087906427    0.0022545226142525097    0.0022460770842388524    0.0022374620999167584    0.0022287733431205665    0.0022200894842775735    0.002211425146638836     0.0022028300686184237    0.0021943025252767452    0.0021858770082790573
0.004333333333333338      0.009999634466337738     0.003930034839711638     0.0030701281155592203    0.0027207993057860036    0.0025235239166383192    0.0023934201026040497    0.0022795712119910226    0.0021822018172062323    0.0021206553667524122    0.002078168435485709     0.0020422367628221885    0.0020099698152337975    0.001983583957968214     0.0019682206876383552    0.0019613406253849194    0.001955210644006038     0.0019504416176305392    0.0019496559008948273    0.0019528126853094808    0.0019614387049487034    0.00197741147476069      0.0019939125147267235    0.0020091157882055283    0.002039748350108172     0.002088970359992226     0.0021178896808895383    0.002179546695925656     0.002264228164593392     0.002326385026422148     0.00236721729325115      0.0023929119493917316    0.0024085626146162172    0.002417170881643048     0.0024208053317998314    0.002420874697773442     0.0024185253470452744    0.0024145006647271023    0.002409209014251166     0.0024028846329789597    0.0023958680363333294    0.002388361051964053     0.002380512191491048     0.002372421414874137     0.0023641912772918256    0.0023559079973734433    0.0023475917751958906    0.002339298443850375     0.0023310299018610486    0.0023228259279442533
0.00466666666666667       0.009999894859405705     0.004159576520776719     0.0032553955586783166    0.002887281889246809     0.002679260608092549     0.0025422117108906167    0.00242242089638448      0.0023201143437179077    0.002255420883120732     0.002210793165843524     0.0021731125523171708    0.0021393005964252137    0.002111741779048112     0.002095498018727832     0.0020881357358232214    0.0020816938820077675    0.0020767557010085255    0.0020758839512769766    0.002079289919335158     0.0020883208233544873    0.0021040402634203838    0.0021200285139808274    0.002136557596637395     0.0021710466696820596    0.0022236397752795722    0.0022482918170250057    0.0023083984555023955    0.002389667339026159     0.0024491745713805476    0.002489525618691358     0.0025159407095717208    0.0025327781141649677    0.002542762985517198     0.0025477801544766176    0.0025491609106607018    0.0025480076620023836    0.002545058071143069     0.0025407326264280535    0.0025352760010692744    0.0025290281638760156    0.0025221994896755962    0.002514947298743243     0.0025073807298315156    0.0024996092114630843    0.002491726510469313     0.0024837584037529447    0.0024757668190823257    0.0024677572784453515    0.0024597748476094493
0.0050000000000000044     0.010000155252473672     0.004389118201841801     0.003440663001797413     0.003053764472707614     0.002834997299546779     0.002691003319177184     0.002565270580777937     0.0024580268702295836    0.0023901863994890524    0.002343417896201339     0.0023039883418121535    0.0022686313776166295    0.00223989960012801      0.002222775349817309     0.0022149308462615235    0.002208177120009497     0.002203069784386512     0.0022021120016591264    0.0022057671533608357    0.002215202941760271     0.0022306690520800775    0.0022461445132349314    0.002263999405069262     0.002302344989255947     0.0023583091905669184    0.002378693953160473     0.0024372502150791352    0.0025151065134589264    0.002571964116338947     0.002611833944131566     0.00263896946975171      0.0026569936137137186    0.002668355089391348     0.002674754977153404     0.002677447123547962     0.002677489976959493     0.002675615477559036     0.0026722562386049414    0.002667667369159589     0.0026621882914187023    0.0026560379273871393    0.002649382405995438     0.002642340044788894     0.002635027145634343     0.002627545023565183     0.002619925032309999     0.0026122351943142766    0.0026044846550296544    0.0025967237672746453
0.005333333333333339      0.010000090671477205     0.004602260894043265     0.003615644768737959     0.0032115166244539957    0.002982723834756417     0.0028321962657627824    0.0027009757523048395    0.0025891863339990474    0.0025183679800350753    0.0024695011058490164    0.002428345843689389     0.0023914894797108475    0.002361608059144323     0.0023435711783979666    0.0023351173602515493    0.0023279301521901856    0.0023225431581723726    0.0023213975703107676    0.0023250801262036814    0.0023345924906731114    0.0023497753516050243    0.0023651324680057494    0.0023839825189651753    0.0024233562050561246    0.0024785625251005777    0.002499463725703809     0.002556337138301039     0.0026313536167512325    0.002685935312833449     0.0027246402094507436    0.0027516267864319825    0.002770050119979245     0.002782137718668928     0.002789430779161762     0.0027930809517054548    0.0027940746073614638    0.002793111131005302     0.0027906165857535634    0.002786846198165693     0.0027821269043516797    0.0027766771012552676    0.0027706646550609945    0.0027642117917189915    0.002757436921715652     0.0027504445811271597    0.002743270394724522     0.0027359855067956877    0.0027286019782042756    0.0027211734262088247
0.0056666666666666705     0.010000026090480738     0.004815403586244729     0.0037906265356785047    0.003369268776200377     0.0031304503699660547    0.0029733892123483805    0.002836680923831742     0.002720345797768511     0.002646549560581098     0.0025955843154966936    0.0025527033455666243    0.0025143475818050656    0.0024833165181606357    0.002464367006978624     0.0024553038742415757    0.0024476831843708736    0.002442016531958233     0.0024406831389624083    0.002444393099046527     0.0024539820395859517    0.002468881651129971     0.002484120422776568     0.0025039656328610885    0.0025443674208563017    0.0025988158596342366    0.0026202334982471454    0.002675424061522943     0.0027476007200435385    0.0027999065093279505    0.0028374464747699213    0.0028642841031122548    0.0028831066262447707    0.0028959203479465073    0.0029041065811701195    0.0029087147798629474    0.002910659237763434     0.002910606784451568     0.002908976932902185     0.002906025027171797     0.0029020655172846566    0.002897316275123396     0.002891946904126551     0.0028860835386490887    0.00287984669779696      0.0028733441386891365    0.002866615757139045     0.0028597358192770984    0.0028527193013788963    0.0028456230851430036
0.006000000000000005      0.00999996150948427      0.005028546278446193     0.00396560830261905      0.003527020927946758     0.0032781769051756925    0.003114582158933979     0.002972386095358644     0.0028515052615379747    0.0027747311411271207    0.002721667525144371     0.0026770608474438596    0.0026372056838992837    0.002605024977176949     0.0025851628355592817    0.0025754903882316015    0.0025674362165515616    0.0025614899057440936    0.002559968707614049     0.0025637060718893727    0.002573371588498792     0.002587987950654918     0.002603108377547386     0.002623948746757002     0.002665378636656479     0.002719069194167896     0.0027410032707904813    0.002794510984744847     0.0028638478233358445    0.002913877705822452     0.002950252740089099     0.0029769414197925274    0.002996163132510297     0.0030097029772240868    0.003018782383178477     0.00302434860802044      0.0030272438681654044    0.0030281024378978343    0.0030273372800508065    0.003025203856177901     0.0030220041302176336    0.003017955448991524     0.003013229153192107     0.0030079552855791863    0.0030022564738782687    0.002996243696251113     0.002989961119553568     0.002983486131758509     0.0029768366245535175    0.002970072744077183
0.00633333333333334       0.009999977532586017     0.005225235478516833     0.004130694416133217     0.0036764624539366328    0.0034183299752126423    0.0032486077722328646    0.0031013798708590294    0.0029763626238867315    0.002896784561478239     0.0028416707181875807    0.0027953733743976703    0.0027540760591430744    0.0027207795034384125    0.00269998703152557      0.0026896070407352586    0.0026810244688382067    0.0026747175374609985    0.0026729317311407       0.0026765299463146833    0.0026860390494153593    0.002700336802291009     0.002715510997553601     0.0027370186889039434    0.0027779770453548384    0.0028290208925928033    0.0028532098361540165    0.0029052877661332574    0.0029722364851278923    0.003020429621039747     0.003055561016493912     0.003081667360157991     0.0031007927433878285    0.003114565580132825     0.0031241022798912167    0.003130262350969763     0.0031338171404109486    0.0031353576413076663    0.0031352775733652877    0.003133825090527996     0.0031312855544028215    0.00312786934942179      0.0031237439913260707    0.0031190386793971394    0.00311387445751184      0.0031083617667139857    0.0031025473473169324    0.0030965090160568576    0.003090266627005282     0.003083881550816887
0.006666666666666671      0.009999993555687762     0.0054219246785874725    0.004295780529647384     0.0038259039799265074    0.003558483045249592     0.0033826333855317497    0.0032303736463594147    0.003101219986235488     0.003018837981829357     0.00296167391123079      0.0029136859013514805    0.0028709464343868647    0.0028365340296998753    0.0028148112274918578    0.002803723693238915     0.0027946127211248514    0.002787945169177903     0.0027858947546673504    0.0027893538207399934    0.0027987065103319267    0.0028126856539270996    0.002827913617559816     0.0028500886310508845    0.002890575454053197     0.00293897259101771      0.002965416401517551     0.0030160645475216675    0.00308062514691994      0.003126981536257041     0.003160869292898725     0.003186393300523454     0.0032054223542653595    0.0032194281830415627    0.003229422176603956     0.003236176093919086     0.0032403904126564924    0.003242612844717498     0.003243217866679769     0.0032424463248780905    0.003240566978588009     0.0032377832498520554    0.003234258829460034     0.0032301220732150917    0.003225492441145411     0.0032204798371768583    0.0032151335750802957    0.003209531900355205     0.0032036966294570457    0.003197690357556591
0.007000000000000006      0.010000009578789507     0.005618613878658112     0.004460866643161551     0.0039753455059163825    0.003698636115286542     0.0035166589988306347    0.0033593674218598       0.0032260773485842447    0.003140891402180475     0.003081677104274        0.003031998428305291     0.0029878168096306554    0.0029522885559613386    0.0029296354234581456    0.002917840345742572     0.002908200973411496     0.002901172800894808     0.0028988577781940013    0.0029021776951653035    0.002911373971248494     0.0029250345055631907    0.0029403162375660308    0.0029631585731978256    0.0030031738627515564    0.0030489242894426167    0.003077622966881086     0.0031268413289100776    0.0031890138087119872    0.003233533451474335     0.0032661775693035382    0.003291119240888917     0.003310051965142891     0.0033242907859503       0.0033347420733166955    0.003342089836868409     0.0033469636849020367    0.0033498680481273296    0.00335115815999425      0.0033510675592281856    0.0033498484027731966    0.003347697150282321     0.0033447736675939975    0.003341205467033044     0.003337110424778982     0.003332597907639731     0.0033277198028436594    0.0033225547846535528    0.0033171266319088097    0.003311499164296295