<?xml version="1.0"?>
<VTKFile type="UnstructuredGrid" version="0.1" byte_order="LittleEndian">
  <UnstructuredGrid>
    <Piece NumberOfCells="128" NumberOfPoints="225">
      <CellData Scalars="p (Pa)">
        <DataArray type="Float32" Name="p (Pa)" NumberOfComponents="1" format="ascii">
          94521.6 94240.8 94062.1 93981.6 94320.9 93669.9 93472.4 93316.8 94372 93819.3 94027.2 93636.2
          94616.6 94427.8 94458.7 94336.9 93913.9 93032.6 92676.8 92571.1 93116.1 87514.6 86933.5 86487.4
          93188.6 87904.1 92426.7 87651.3 94020.3 93310.5 93753.9 93171.5 92533.4 86338.5 85066.2 84948.9
          86433.1 -1.29484e+06 -1.34425e+06 -1.31121e+06 86596.5 -1.28459e+06 83637 -1.06216e+06 92669.9 86951.8 92115.4 86885.6
          91390.1 82894.4 74862.1 78201.5 82913.8 -1.34822e+06 -1.35422e+06 -1.35328e+06 83293.1 -1.35127e+06 79603.8 81890.5
          91649.5 83968.6 90955.5 91548.8 90822.8 80363.3 -1.35843e+06 73818.8 82045.8 -1.35624e+06 -1.3559e+06 72477
          84408.1 -1.31548e+06 -1.2857e+06 83312.8 91850.7 84736.7 84832.5 91593.8 90738.4 80192.3 -1.36103e+06 -1.36277e+06
          83437.2 -1.3491e+06 -1.35691e+06 -1.35045e+06 91290.9 82727.8 81452 84774.2 92993 91764.8 91525.5 92301.1
          90706.6 80137.1 -1.36079e+06 -1.35716e+06 84044.4 -1.33229e+06 -1.35319e+06 79863.9 91875.8 85230.7 84763.9 91216.4
          93287.7 92482.7 92360 93043.7 90622.7 79960.6 -1.3586e+06 73737.8 83991.3 -1.35055e+06 -1.35223e+06 83190.5
          91891.8 85258.6 85068 91688.5 93295.5 92530.8 92457.2 93165.4
        </DataArray>
        <DataArray type="Float32" Name="saturation" NumberOfComponents="1" format="ascii">
          0.117396 0.116186 0.115503 0.115215 0.116513 0.114201 0.113633 0.11322 0.116729 0.114668 0.115376 0.1141
          0.117849 0.116972 0.117109 0.11658 0.114981 0.112536 0.111788 0.111587 0.112728 0.107108 0.106894 0.106748
          0.112901 0.107268 0.111325 0.107162 0.115352 0.113204 0.11446 0.112859 0.111517 0.106703 0.106368 0.106342
          0.106732 0.101101 0.100965 0.101056 0.106783 0.101129 0.106081 0.101738 0.111775 0.1069 0.110809 0.106878
          0.109816 0.10596 0.105257 0.105457 0.105963 0.100954 0.100938 0.100941 0.106023 0.100946 0.105572 0.105819
          0.110141 0.106141 0.109331 0.110011 0.109197 0.105644 0.100926 0.10521 0.105839 0.100932 0.100933 0.105157
          0.106226 0.101044 0.101126 0.106026 0.110416 0.106295 0.106316 0.110069 0.109115 0.105627 0.100919 0.100915
          0.106047 0.100952 0.100931 0.100948 0.109699 0.105935 0.105764 0.106303 0.112447 0.110296 0.109982 0.111109
          0.109084 0.105622 0.10092 0.10093 0.106155 0.100998 0.100941 0.105596 0.110451 0.106407 0.106301 0.109613
          0.113146 0.111425 0.111209 0.112561 0.109005 0.105605 0.100926 0.105206 0.106145 0.100948 0.100943 0.106006
          0.110474 0.106413 0.106369 0.110193 0.113165 0.111512 0.111379 0.112845
        </DataArray>
        <DataArray type="Float32" Name="process rank" NumberOfComponents="1" format="ascii">
          0 0 0 0 0 0 0 0 0 0 0 0
          0 0 0 0 0 0 0 0 0 0 0 0
          0 0 0 0 0 0 0 0 0 0 0 0
          0 0 0 0 0 0 0 0 0 0 0 0
          0 0 0 0 0 0 0 0 0 0 0 0
          0 0 0 0 0 0 0 0 0 0 0 0
          0 0 0 0 0 0 0 0 0 0 0 0
          0 0 0 0 0 0 0 0 0 0 0 0
          0 0 0 0 0 0 0 0 0 0 0 0
          0 0 0 0 0 0 0 0 0 0 0 0
          0 0 0 0 0 0 0 0
        </DataArray>
      </CellData>
      <Points>
        <DataArray type="Float32" Name="Coordinates" NumberOfComponents="3" format="ascii">
          -0.04 -0.04 -0.15 -0.02 -0.04 -0.15 -0.04 -0.02 -0.15 -0.02 -0.02 -0.15
          -0.04 -0.04 -0.13125 -0.02 -0.04 -0.13125 -0.04 -0.02 -0.13125 -0.02 -0.02 -0.13125
          0 -0.04 -0.15 0 -0.02 -0.15 0 -0.04 -0.13125 0 -0.02 -0.13125
          0.02 -0.04 -0.15 0.02 -0.02 -0.15 0.02 -0.04 -0.13125 0.02 -0.02 -0.13125
          0.04 -0.04 -0.15 0.04 -0.02 -0.15 0.04 -0.04 -0.13125 0.04 -0.02 -0.13125
          -0.04 0 -0.15 -0.02 0 -0.15 -0.04 0 -0.13125 -0.02 0 -0.13125
          0 0 -0.15 0 0 -0.13125 0.02 0 -0.15 0.02 0 -0.13125
          0.04 0 -0.15 0.04 0 -0.13125 -0.04 0.02 -0.15 -0.02 0.02 -0.15
          -0.04 0.02 -0.13125 -0.02 0.02 -0.13125 0 0.02 -0.15 0 0.02 -0.13125
          0.02 0.02 -0.15 0.02 0.02 -0.13125 0.04 0.02 -0.15 0.04 0.02 -0.13125
          -0.04 0.04 -0.15 -0.02 0.04 -0.15 -0.04 0.04 -0.13125 -0.02 0.04 -0.13125
          0 0.04 -0.15 0 0.04 -0.13125 0.02 0.04 -0.15 0.02 0.04 -0.13125
          0.04 0.04 -0.15 0.04 0.04 -0.13125 -0.04 -0.04 -0.1125 -0.02 -0.04 -0.1125
          -0.04 -0.02 -0.1125 -0.02 -0.02 -0.1125 0 -0.04 -0.1125 0 -0.02 -0.1125
          0.02 -0.04 -0.1125 0.02 -0.02 -0.1125 0.04 -0.04 -0.1125 0.04 -0.02 -0.1125
          -0.04 0 -0.1125 -0.02 0 -0.1125 0 0 -0.1125 0.02 0 -0.1125
          0.04 0 -0.1125 -0.04 0.02 -0.1125 -0.02 0.02 -0.1125 0 0.02 -0.1125
          0.02 0.02 -0.1125 0.04 0.02 -0.1125 -0.04 0.04 -0.1125 -0.02 0.04 -0.1125
          0 0.04 -0.1125 0.02 0.04 -0.1125 0.04 0.04 -0.1125 -0.04 -0.04 -0.09375
          -0.02 -0.04 -0.09375 -0.04 -0.02 -0.09375 -0.02 -0.02 -0.09375 0 -0.04 -0.09375
          0 -0.02 -0.09375 0.02 -0.04 -0.09375 0.02 -0.02 -0.09375 0.04 -0.04 -0.09375
          0.04 -0.02 -0.09375 -0.04 0 -0.09375 -0.02 0 -0.09375 0 0 -0.09375
          0.02 0 -0.09375 0.04 0 -0.09375 -0.04 0.02 -0.09375 -0.02 0.02 -0.09375
          0 0.02 -0.09375 0.02 0.02 -0.09375 0.04 0.02 -0.09375 -0.04 0.04 -0.09375
          -0.02 0.04 -0.09375 0 0.04 -0.09375 0.02 0.04 -0.09375 0.04 0.04 -0.09375
          -0.04 -0.04 -0.075 -0.02 -0.04 -0.075 -0.04 -0.02 -0.075 -0.02 -0.02 -0.075
          0 -0.04 -0.075 0 -0.02 -0.075 0.02 -0.04 -0.075 0.02 -0.02 -0.075
          0.04 -0.04 -0.075 0.04 -0.02 -0.075 -0.04 0 -0.075 -0.02 0 -0.075
          0 0 -0.075 0.02 0 -0.075 0.04 0 -0.075 -0.04 0.02 -0.075
          -0.02 0.02 -0.075 0 0.02 -0.075 0.02 0.02 -0.075 0.04 0.02 -0.075
          -0.04 0.04 -0.075 -0.02 0.04 -0.075 0 0.04 -0.075 0.02 0.04 -0.075
          0.04 0.04 -0.075 -0.04 -0.04 -0.05625 -0.02 -0.04 -0.05625 -0.04 -0.02 -0.05625
          -0.02 -0.02 -0.05625 0 -0.04 -0.05625 0 -0.02 -0.05625 0.02 -0.04 -0.05625
          0.02 -0.02 -0.05625 0.04 -0.04 -0.05625 0.04 -0.02 -0.05625 -0.04 0 -0.05625
          -0.02 0 -0.05625 0 0 -0.05625 0.02 0 -0.05625 0.04 0 -0.05625
          -0.04 0.02 -0.05625 -0.02 0.02 -0.05625 0 0.02 -0.05625 0.02 0.02 -0.05625
          0.04 0.02 -0.05625 -0.04 0.04 -0.05625 -0.02 0.04 -0.05625 0 0.04 -0.05625
          0.02 0.04 -0.05625 0.04 0.04 -0.05625 -0.04 -0.04 -0.0375 -0.02 -0.04 -0.0375
          -0.04 -0.02 -0.0375 -0.02 -0.02 -0.0375 0 -0.04 -0.0375 0 -0.02 -0.0375
          0.02 -0.04 -0.0375 0.02 -0.02 -0.0375 0.04 -0.04 -0.0375 0.04 -0.02 -0.0375
          -0.04 0 -0.0375 -0.02 0 -0.0375 0 0 -0.0375 0.02 0 -0.0375
          0.04 0 -0.0375 -0.04 0.02 -0.0375 -0.02 0.02 -0.0375 0 0.02 -0.0375
          0.02 0.02 -0.0375 0.04 0.02 -0.0375 -0.04 0.04 -0.0375 -0.02 0.04 -0.0375
          0 0.04 -0.0375 0.02 0.04 -0.0375 0.04 0.04 -0.0375 -0.04 -0.04 -0.01875
          -0.02 -0.04 -0.01875 -0.04 -0.02 -0.01875 -0.02 -0.02 -0.01875 0 -0.04 -0.01875
          0 -0.02 -0.01875 0.02 -0.04 -0.01875 0.02 -0.02 -0.01875 0.04 -0.04 -0.01875
          0.04 -0.02 -0.01875 -0.04 0 -0.01875 -0.02 0 -0.01875 0 0 -0.01875
          0.02 0 -0.01875 0.04 0 -0.01875 -0.04 0.02 -0.01875 -0.02 0.02 -0.01875
          0 0.02 -0.01875 0.02 0.02 -0.01875 0.04 0.02 -0.01875 -0.04 0.04 -0.01875
          -0.02 0.04 -0.01875 0 0.04 -0.01875 0.02 0.04 -0.01875 0.04 0.04 -0.01875
          -0.04 -0.04 1.04083e-17 -0.02 -0.04 1.04083e-17 -0.04 -0.02 1.04083e-17 -0.02 -0.02 1.04083e-17
          0 -0.04 1.04083e-17 0 -0.02 1.04083e-17 0.02 -0.04 1.04083e-17 0.02 -0.02 1.04083e-17
          0.04 -0.04 1.04083e-17 0.04 -0.02 1.04083e-17 -0.04 0 1.04083e-17 -0.02 0 1.04083e-17
          0 0 1.04083e-17 0.02 0 1.04083e-17 0.04 0 1.04083e-17 -0.04 0.02 1.04083e-17
          -0.02 0.02 1.04083e-17 0 0.02 1.04083e-17 0.02 0.02 1.04083e-17 0.04 0.02 1.04083e-17
          -0.04 0.04 1.04083e-17 -0.02 0.04 1.04083e-17 0 0.04 1.04083e-17 0.02 0.04 1.04083e-17
          0.04 0.04 1.04083e-17
        </DataArray>
      </Points>
      <Cells>
        <DataArray type="Int32" Name="connectivity" NumberOfComponents="1" format="ascii">
          0 1 3 2 4 5 7 6 1 8 9 3
          5 10 11 7 8 12 13 9 10 14 15 11
          12 16 17 13 14 18 19 15 2 3 21 20
          6 7 23 22 3 9 24 21 7 11 25 23
          9 13 26 24 11 15 27 25 13 17 28 26
          15 19 29 27 20 21 31 30 22 23 33 32
          21 24 34 31 23 25 35 33 24 26 36 34
          25 27 37 35 26 28 38 36 27 29 39 37
          30 31 41 40 32 33 43 42 31 34 44 41
          33 35 45 43 34 36 46 44 35 37 47 45
          36 38 48 46 37 39 49 47 4 5 7 6
          50 51 53 52 5 10 11 7 51 54 55 53
          10 14 15 11 54 56 57 55 14 18 19 15
          56 58 59 57 6 7 23 22 52 53 61 60
          7 11 25 23 53 55 62 61 11 15 27 25
          55 57 63 62 15 19 29 27 57 59 64 63
          22 23 33 32 60 61 66 65 23 25 35 33
          61 62 67 66 25 27 37 35 62 63 68 67
          27 29 39 37 63 64 69 68 32 33 43 42
          65 66 71 70 33 35 45 43 66 67 72 71
          35 37 47 45 67 68 73 72 37 39 49 47
          68 69 74 73 50 51 53 52 75 76 78 77
          51 54 55 53 76 79 80 78 54 56 57 55
          79 81 82 80 56 58 59 57 81 83 84 82
          52 53 61 60 77 78 86 85 53 55 62 61
          78 80 87 86 55 57 63 62 80 82 88 87
          57 59 64 63 82 84 89 88 60 61 66 65
          85 86 91 90 61 62 67 66 86 87 92 91
          62 63 68 67 87 88 93 92 63 64 69 68
          88 89 94 93 65 66 71 70 90 91 96 95
          66 67 72 71 91 92 97 96 67 68 73 72
          92 93 98 97 68 69 74 73 93 94 99 98
          75 76 78 77 100 101 103 102 76 79 80 78
          101 104 105 103 79 81 82 80 104 106 107 105
          81 83 84 82 106 108 109 107 77 78 86 85
          102 103 111 110 78 80 87 86 103 105 112 111
          80 82 88 87 105 107 113 112 82 84 89 88
          107 109 114 113 85 86 91 90 110 111 116 115
          86 87 92 91 111 112 117 116 87 88 93 92
          112 113 118 117 88 89 94 93 113 114 119 118
          90 91 96 95 115 116 121 120 91 92 97 96
          116 117 122 121 92 93 98 97 117 118 123 122
          93 94 99 98 118 119 124 123 100 101 103 102
          125 126 128 127 101 104 105 103 126 129 130 128
          104 106 107 105 129 131 132 130 106 108 109 107
          131 133 134 132 102 103 111 110 127 128 136 135
          103 105 112 111 128 130 137 136 105 107 113 112
          130 132 138 137 107 109 114 113 132 134 139 138
          110 111 116 115 135 136 141 140 111 112 117 116
          136 137 142 141 112 113 118 117 137 138 143 142
          113 114 119 118 138 139 144 143 115 116 121 120
          140 141 146 145 116 117 122 121 141 142 147 146
          117 118 123 122 142 143 148 147 118 119 124 123
          143 144 149 148 125 126 128 127 150 151 153 152
          126 129 130 128 151 154 155 153 129 131 132 130
          154 156 157 155 131 133 134 132 156 158 159 157
          127 128 136 135 152 153 161 160 128 130 137 136
          153 155 162 161 130 132 138 137 155 157 163 162
          132 134 139 138 157 159 164 163 135 136 141 140
          160 161 166 165 136 137 142 141 161 162 167 166
          137 138 143 142 162 163 168 167 138 139 144 143
          163 164 169 168 140 141 146 145 165 166 171 170
          141 142 147 146 166 167 172 171 142 143 148 147
          167 168 173 172 143 144 149 148 168 169 174 173
          150 151 153 152 175 176 178 177 151 154 155 153
          176 179 180 178 154 156 157 155 179 181 182 180
          156 158 159 157 181 183 184 182 152 153 161 160
          177 178 186 185 153 155 162 161 178 180 187 186
          155 157 163 162 180 182 188 187 157 159 164 163
          182 184 189 188 160 161 166 165 185 186 191 190
          161 162 167 166 186 187 192 191 162 163 168 167
          187 188 193 192 163 164 169 168 188 189 194 193
          165 166 171 170 190 191 196 195 166 167 172 171
          191 192 197 196 167 168 173 172 192 193 198 197
          168 169 174 173 193 194 199 198 175 176 178 177
          200 201 203 202 176 179 180 178 201 204 205 203
          179 181 182 180 204 206 207 205 181 183 184 182
          206 208 209 207 177 178 186 185 202 203 211 210
          178 180 187 186 203 205 212 211 180 182 188 187
          205 207 213 212 182 184 189 188 207 209 214 213
          185 186 191 190 210 211 216 215 186 187 192 191
          211 212 217 216 187 188 193 192 212 213 218 217
          188 189 194 193 213 214 219 218 190 191 196 195
          215 216 221 220 191 192 197 196 216 217 222 221
          192 193 198 197 217 218 223 222 193 194 199 198
          218 219 224 223
        </DataArray>
        <DataArray type="Int32" Name="offsets" NumberOfComponents="1" format="ascii">
          8 16 24 32 40 48 56 64 72 80 88 96
          104 112 120 128 136 144 152 160 168 176 184 192
          200 208 216 224 232 240 248 256 264 272 280 288
          296 304 312 320 328 336 344 352 360 368 376 384
          392 400 408 416 424 432 440 448 456 464 472 480
          488 496 504 512 520 528 536 544 552 560 568 576
          584 592 600 608 616 624 632 640 648 656 664 672
          680 688 696 704 712 720 728 736 744 752 760 768
          776 784 792 800 808 816 824 832 840 848 856 864
          872 880 888 896 904 912 920 928 936 944 952 960
          968 976 984 992 1000 1008 1016 1024
        </DataArray>
        <DataArray type="UInt8" Name="types" NumberOfComponents="1" format="ascii">
          12 12 12 12 12 12 12 12 12 12 12 12
          12 12 12 12 12 12 12 12 12 12 12 12
          12 12 12 12 12 12 12 12 12 12 12 12
          12 12 12 12 12 12 12 12 12 12 12 12
          12 12 12 12 12 12 12 12 12 12 12 12
          12 12 12 12 12 12 12 12 12 12 12 12
          12 12 12 12 12 12 12 12 12 12 12 12
          12 12 12 12 12 12 12 12 12 12 12 12
          12 12 12 12 12 12 12 12 12 12 12 12
          12 12 12 12 12 12 12 12 12 12 12 12
          12 12 12 12 12 12 12 12
        </DataArray>
      </Cells>
    </Piece>
  </UnstructuredGrid>
</VTKFile>
