<?xml version="1.0"?><VTKFile type="PolyData" version="0.1" byte_order="LittleEndian">
<PolyData>
<Piece NumberOfLines="44" NumberOfPoints="45">
<CellData Scalars=" CellData">
<DataArray type="Float32" Name="radius" NumberOfComponents="1" format="ascii" >
0.02 0.02 0.02 0.02 0.02 0.02 0.02 0.02 0.02 0.02 0.02 0.02 0.02 0.02 0.02 0.02 0.02 0.02 0.02 0.02 0.02 0.02 0.02 0.02 0.02 0.02 0.02 0.02 0.02 0.02 0.02 0.02 0.02 0.02 0.02 0.02 0.02 0.02 0.02 0.02 0.02 0.02 0.02 0.02 
</DataArray>
<DataArray type="Float32" Name="subType" NumberOfComponents="1" format="ascii" >
1 1 1 1 1 1 1 1 1 1 1 1 1 1 1 1 2 2 2 2 2 3 3 2 2 2 2 2 3 3 2 2 2 2 2 3 2 2 2 2 2 2 2 2 
</DataArray>
<DataArray type="Float32" Name="creationTime" NumberOfComponents="1" format="ascii" >
0.3125 0.625 0.8604 1.1729 1.21615 1.52865 1.57191 1.88441 1.92766 2.24016 2.28341 2.59591 2.63917 2.95167 2.99492 3 1.30435 1.57043 1.78329 2.04936 2.13051 2.34328 2.53051 1.6601 1.92618 2.13904 2.40511 2.48626 2.69903 2.88626 2.01586 2.28193 2.49479 2.76087 2.84202 3 2.37161 2.63769 2.85055 3 2.72736 2.99344 3 3 
</DataArray>
<DataArray type="Float32" Name="organType" NumberOfComponents="1" format="ascii" >
2 2 2 2 2 2 2 2 2 2 2 2 2 2 2 2 2 2 2 2 2 2 2 2 2 2 2 2 2 2 2 2 2 2 2 2 2 2 2 2 2 2 2 2 
</DataArray>

</CellData>
<Points>
<DataArray type="Float32" Name="Coordinates" NumberOfComponents="3" format="ascii" >
0 0 -3 -0.007583 -0.00031533 -3.49994 -0.0144497 -0.000996155 -3.99989 -0.0138442 -0.0162584 -4.37622 -0.0188853 -0.0195467 -4.87619 -0.017829 -0.0195604 -4.94539 -0.00308295 -0.00910558 -5.44506 -0.00500017 -0.00837167 -5.51423 -0.0112092 -0.0131064 -6.01417 -0.0104624 -0.0153037 -6.08334 -0.010064 -0.0214874 -6.5833 -0.0101184 -0.0223562 -6.6525 -0.013927 -0.0279924 -7.15245 -0.0130075 -0.0279717 -7.22165 -0.0015142 -0.0343181 -7.72148 0.000152606 -0.0354346 -7.79066 0.000587229 -0.0353545 -7.79877 0.461719 0.0708086 -4.50374 0.935371 0.159409 -4.63717 1.3225 0.221953 -4.71603 1.80303 0.320151 -4.81323 1.95345 0.342906 -4.80267 1.37052 -0.199543 -4.98067 1.41721 -0.570911 -5.21198 0.181549 -0.451175 -5.10017 0.412915 -0.872254 -5.23859 0.562198 -1.20357 -5.40577 0.77393 -1.61902 -5.58624 0.856204 -1.69811 -5.68738 0.408316 -1.49905 -5.03293 0.270248 -1.75864 -4.70559 0.479841 -0.103058 -5.59146 0.964622 -0.196862 -5.67012 1.35273 -0.269649 -5.73393 1.85213 -0.292875 -5.72569 2.00447 -0.287732 -5.72128 1.29757 -0.624499 -5.82813 -0.0268245 0.479797 -6.15122 -0.0523345 0.975276 -6.21326 -0.0733812 1.37457 -6.22431 -0.0865635 1.65502 -6.23138 -0.259299 -0.451254 -6.71539 -0.53012 -0.840533 -6.87388 -0.534877 -0.849662 -6.88066 0.30881 0.0850249 -7.17841 
</DataArray>
</Points>
<Lines>
<DataArray type="Int32" Name="connectivity" NumberOfComponents="1" format="ascii" >
0 1 1 2 2 3 3 4 4 5 5 6 6 7 7 8 8 9 9 10 10 11 11 12 12 13 13 14 14 15 15 16 3 17 17 18 18 19 19 20 20 21 19 22 22 23 5 24 24 25 25 26 26 27 27 28 26 29 29 30 7 31 31 32 32 33 33 34 34 35 33 36 9 37 37 38 38 39 39 40 11 41 41 42 42 43 13 44 
</DataArray>
<DataArray type="Int32" Name="offsets" NumberOfComponents="1" format="ascii" >
2 4 6 8 10 12 14 16 18 20 22 24 26 28 30 32 34 36 38 40 42 44 46 48 50 52 54 56 58 60 62 64 66 68 70 72 74 76 78 80 82 84 86 88 
</DataArray>

</Lines>
</Piece>
</PolyData>
</VTKFile>
