<?xml version="1.0"?>
<VTKFile type="UnstructuredGrid" version="0.1" byte_order="LittleEndian">
  <UnstructuredGrid>
    <Piece NumberOfCells="450" NumberOfPoints="660">
      <CellData Scalars="p (Pa)">
        <DataArray type="Float32" Name="p (Pa)" NumberOfComponents="1" format="ascii">
          30189.9 29939.3 29864.1 29883.5 29917.1 30146 29898.3 29835.6 29867.3 29908.1 30141.1 29898.4
          29852.1 29899.2 29949.1 30309.2 30071 30030.1 30080.4 30132.7 30748.5 30513.4 30457.6 30491.1
          30534.3 31395.9 31179.5 31112.1 31124.6 31153.3 32131.3 31944.5 31876.7 31875.6 31892 32826.3
          32667 32603.8 32595.8 32604.3 33362.2 33222.2 33163.2 33151.7 33155.8 33652.4 33521.9 33465
          33452 33454.1 28742.6 28508.2 28498.6 28587.3 28662.8 28589.2 28368.5 28390.9 28507.3 28598.3
          28411.6 28214.7 28284.4 28438.3 28550.8 28463.3 28284 28372.4 28537.5 28659.5 29010.4 28802.2
          28833 28954.2 29059.8 29851.2 29651.8 29639 29709.3 29783.2 30793.9 30629.3 30604.6 30645.4
          30692.3 31682.3 31545.9 31519.5 31544.8 31575 32364.2 32244.2 32216.2 32232.6 32253.6 32731.4
          32618.5 32589.2 32601 32617.8 25668.9 25502.5 25674.9 25940.8 26120.2 25168.1 25068.2 25345.9
          25690.2 25911.3 24367.2 24410.4 24868.9 25332.3 25619 23864.9 24073 24641.7 25157.4 25490.9
          24910.6 24862.8 25161 25527.6 25836.2 26369.2 26262.8 26397.5 26607.4 26823.2 27876 27813.6
          27908.1 28049.2 28182.4 29277 29228.2 29302.7 29409.7 29495.8 30334.5 30280.3 30334.5 30418.7
          30480.6 30894.8 30834.6 30875.6 30947.3 30998.7 20381.1 20446 21047.9 21688.7 22078.1 18860.7
          19235.5 20190.1 21054.8 21557.9 15735 17011.8 18712.6 19970.5 20684.5 11739.5 14952.9 17404.6
          18922.3 19874.2 16062.6 16895.5 17877.5 18830.8 19876.1 19595.8 19919.9 20343.9 20756.9 21465.7
          22488.2 22858.6 23230.6 23542.7 23916.6 25127.5 25380.7 25694.2 25960.1 26173.5 27035 27168.8
          27405.9 27623.8 27768.1 28007.7 28080.4 28269.9 28457.3 28574.5 11825.4 12575.8 14113.7 15479.3
          16255.8 7307.19 9421.88 12087.5 14054.4 15126 -6034.31 2173.14 7972.58 11205.1 12956.4 -48778.3
          -8980.08 2608.82 7162.47 10188 -6391.83 -407.695 1227.91 3396.53 8462.05 5809.49 8088.77 8598.14
          8392.45 11631.2 12224 14478.6 15434.3 15820.1 17022.7 18190.2 19457.4 20309.7 20833.6 21353.3
          22075.9 22712.4 23328.7 23783.8 24085.9 23905.7 24284.2 24759.8 25149.5 25380.8 -1482.38 987.264
          4336.33 6961.87 8387.79 -14385.5 -6531.52 40.4815 4103.64 6225.53 -81738.2 -29814.9 -10551.6 -2738.09
          1479.03 -994584 -106483 -32611.2 -17947.5 -6647.94 -83958.6 -43388.9 -63245.7 -60911.7 -16956.3 -25808.6
          -14523.9 -18196 -34072.1 -8460.93 -10513 480.064 2455.55 1264.01 6131.7 6347.52 10863.2 12848.9
          13648 14958.4 15012.8 16861.7 18189.6 19017.8 19606.4 18544.1 19539 20504.8 21209.6 21618.9
          -20319 -14794 -8613.88 -4067.93 -1661.5 -48591.3 -30296.5 -16372.7 -8910.3 -5121.61 -188907 -106468
          -40517.2 -23073.3 -13628 -1.02723e+06 -1.01282e+06 -137225 -83330.2 -33067.2 -183833 -160935 -778311 -829156
          -86039.5 -101607 -54885.1 -93193.8 -432916 -53074.9 -75869.9 -20830.6 -17336.1 -31847.4 -8484.36 -13143.9
          53.2281 4087.89 4935.91 8029.04 6108.99 10237.7 12658.1 13998.6 15011.6 12429.6 14387.2 16031.6
          17148.7 17785.3 -43291.7 -34236.7 -25185.6 -17880.5 -14039.6 -104284 -56141.6 -35230.4 -23700.1 -18149.9
          -727179 -137493 -65362.1 -38980.4 -27601.3 -1.02902e+06 -321403 -169345 -76018.9 -44135.1 -316575 -260985
          -1.02533e+06 -167545 -61350.5 -192652 -94850.5 -122145 -78189.1 -36835.6 -114539 -37437.1 -26512.4 -19496.1
          -10246.4 -27259.9 -8408.24 -1755.92 1666.27 4342.36 -1087.42 4786.8 8282.75 10367.4 11574.7 7241.91
          10005.5 12264.8 13792.2 14607.3 -65799 -59556.8 -51315.5 -37153.2 -30068.8 -148180 -88656.2 -60894.9
          -42552.1 -33914.5 -1.05704e+06 -219752 -98287.2 -57253.4 -42026.9 -1.034e+06 -1.03962e+06 -217566 -83208.4 -51302.2
          -1.04579e+06 -1.04379e+06 -1.01716e+06 -124877 -51863.2 -292806 -152353 -114214 -48295.2 -28759.8 -125107 -45541.8
          -27345.3 -15323.3 -9223.96 -30843.4 -11992.9 -4072.9 471.768 2884.63 -3914.22 2011.04 5865.43 8290.1
          9547.97 4620.04 7469.87 9912.58 11609.9 12492.9
        </DataArray>
        <DataArray type="Float32" Name="saturation" NumberOfComponents="1" format="ascii">
          0.295002 0.294769 0.294699 0.294717 0.294748 0.294961 0.294731 0.294673 0.294702 0.29474 0.294956 0.294731
          0.294688 0.294732 0.294778 0.295113 0.294891 0.294853 0.2949 0.294949 0.295526 0.295305 0.295252 0.295284
          0.295324 0.296142 0.295935 0.295871 0.295882 0.29591 0.296852 0.296671 0.296605 0.296604 0.29662 0.297535
          0.297378 0.297316 0.297308 0.297316 0.29807 0.29793 0.297871 0.297859 0.297863 0.298362 0.29823 0.298173
          0.29816 0.298162 0.293675 0.293464 0.293455 0.293535 0.293603 0.293537 0.293339 0.293359 0.293463 0.293545
          0.293377 0.293201 0.293263 0.293401 0.293502 0.293424 0.293263 0.293342 0.29349 0.2936 0.293917 0.293729
          0.293756 0.293866 0.293962 0.294687 0.294503 0.294492 0.294556 0.294625 0.295569 0.295413 0.29539 0.295429
          0.295473 0.296417 0.296286 0.29626 0.296284 0.296314 0.29708 0.296963 0.296935 0.296951 0.296972 0.297441
          0.29733 0.297301 0.297313 0.297329 0.290994 0.290853 0.290999 0.291224 0.291376 0.290573 0.29049 0.290722
          0.291012 0.291199 0.289911 0.289946 0.290324 0.290711 0.290952 0.289501 0.28967 0.290136 0.290564 0.290844
          0.290359 0.290319 0.290567 0.290875 0.291135 0.291589 0.291498 0.291613 0.291793 0.291979 0.2929 0.292845
          0.292929 0.293054 0.293173 0.29416 0.294115 0.294183 0.294281 0.29436 0.295137 0.295086 0.295137 0.295216
          0.295274 0.295664 0.295607 0.295646 0.295714 0.295763 0.286771 0.28682 0.287279 0.287773 0.288076 0.285638
          0.285914 0.286627 0.287284 0.287671 0.283413 0.284306 0.28553 0.286462 0.287001 0.280753 0.282877 0.284585
          0.285684 0.28639 0.28364 0.284224 0.284924 0.285617 0.286391 0.286182 0.286424 0.286743 0.287056 0.2876
          0.288399 0.288692 0.288989 0.28924 0.289543 0.290539 0.290751 0.291015 0.29124 0.291422 0.292163 0.292279
          0.292487 0.292678 0.292805 0.293017 0.293082 0.293251 0.293418 0.293523 0.280808 0.281294 0.28231 0.283237
          0.283775 0.278017 0.279296 0.280977 0.28227 0.282995 0.270907 0.275099 0.278415 0.280411 0.281542 0.255327
          0.269526 0.275337 0.277932 0.279771 0.270736 0.273722 0.274588 0.275772 0.27871 0.27714 0.278484 0.278792
          0.278668 0.280683 0.281065 0.282555 0.283206 0.283472 0.284314 0.28515 0.286079 0.286717 0.287115 0.287513
          0.288075 0.288576 0.289068 0.289435 0.28968 0.289534 0.289843 0.290234 0.290558 0.290751 0.273165 0.274459
          0.276298 0.277813 0.278665 0.267142 0.27067 0.273957 0.276167 0.277381 0.247498 0.261224 0.268814 0.272526
          0.274723 0.206978 0.242971 0.26027 0.265666 0.270614 0.247052 0.256876 0.25158 0.252148 0.26607 0.262649
          0.267083 0.265566 0.259785 0.269765 0.268831 0.274189 0.275253 0.274607 0.277327 0.277452 0.280195 0.281472
          0.281999 0.28288 0.282918 0.2842 0.285149 0.285754 0.28619 0.285407 0.28614 0.286865 0.287403 0.287719
          0.264723 0.266969 0.269695 0.271863 0.273073 0.25538 0.261057 0.26631 0.269558 0.271347 0.232587 0.242973
          0.25774 0.263664 0.267465 0.206612 0.206772 0.238426 0.247177 0.260118 0.233084 0.235518 0.209934 0.209141
          0.246642 0.243792 0.253677 0.245287 0.218282 0.254155 0.248719 0.264523 0.265914 0.260527 0.269754 0.267673
          0.273963 0.276158 0.276638 0.278449 0.277314 0.279802 0.281347 0.282233 0.282917 0.281198 0.282494 0.283619
          0.284403 0.284858 0.256905 0.25973 0.262877 0.265693 0.267289 0.243338 0.253351 0.259406 0.263428 0.265584
          0.210809 0.23839 0.251076 0.258213 0.262002 0.206593 0.223158 0.234586 0.248687 0.256656 0.223415 0.226767
          0.206633 0.234781 0.25204 0.232229 0.244985 0.24053 0.248229 0.258889 0.24168 0.258698 0.262393 0.265047
          0.268951 0.262124 0.26979 0.273025 0.274824 0.276301 0.273368 0.276553 0.278601 0.279883 0.280647 0.277979
          0.279657 0.281092 0.282095 0.282642 0.250973 0.252484 0.254629 0.258788 0.261136 0.237027 0.246137 0.252152
          0.257125 0.259837 0.206293 0.22984 0.24437 0.253065 0.257282 0.206539 0.206478 0.230021 0.247202 0.254633
          0.206412 0.206433 0.206723 0.240132 0.254481 0.224755 0.23652 0.24173 0.255462 0.261592 0.240099 0.256246
          0.262094 0.266746 0.269415 0.260869 0.268174 0.27186 0.274184 0.275488 0.271939 0.27501 0.277172 0.278606
          0.279374 0.276458 0.278114 0.279599 0.28067 0.28124
        </DataArray>
        <DataArray type="Float32" Name="process rank" NumberOfComponents="1" format="ascii">
          1 1 1 1 1 1 1 1 1 1 1 1
          1 1 1 1 1 1 1 1 1 1 1 1
          1 1 1 1 1 1 1 1 1 1 1 1
          1 1 1 1 1 1 1 1 1 1 1 1
          1 1 1 1 1 1 1 1 1 1 1 1
          1 1 1 1 1 1 1 1 1 1 1 1
          1 1 1 1 1 1 1 1 1 1 1 1
          1 1 1 1 1 1 1 1 1 1 1 1
          1 1 1 1 1 1 1 1 1 1 1 1
          1 1 1 1 1 1 1 1 1 1 1 1
          1 1 1 1 1 1 1 1 1 1 1 1
          1 1 1 1 1 1 1 1 1 1 1 1
          1 1 1 1 1 1 1 1 1 1 1 1
          1 1 1 1 1 1 1 1 1 1 1 1
          1 1 1 1 1 1 1 1 1 1 1 1
          1 1 1 1 1 1 1 1 1 1 1 1
          1 1 1 1 1 1 1 1 1 1 1 1
          1 1 1 1 1 1 1 1 1 1 1 1
          1 1 1 1 1 1 1 1 1 1 1 1
          1 1 1 1 1 1 1 1 1 1 1 1
          1 1 1 1 1 1 1 1 1 1 1 1
          1 1 1 1 1 1 1 1 1 1 1 1
          1 1 1 1 1 1 1 1 1 1 1 1
          1 1 1 1 1 1 1 1 1 1 1 1
          1 1 1 1 1 1 1 1 1 1 1 1
          1 1 1 1 1 1 1 1 1 1 1 1
          1 1 1 1 1 1 1 1 1 1 1 1
          1 1 1 1 1 1 1 1 1 1 1 1
          1 1 1 1 1 1 1 1 1 1 1 1
          1 1 1 1 1 1 1 1 1 1 1 1
          1 1 1 1 1 1 1 1 1 1 1 1
          1 1 1 1 1 1 1 1 1 1 1 1
          1 1 1 1 1 1 1 1 1 1 1 1
          1 1 1 1 1 1 1 1 1 1 1 1
          1 1 1 1 1 1 1 1 1 1 1 1
          1 1 1 1 1 1 1 1 1 1 1 1
          1 1 1 1 1 1 1 1 1 1 1 1
          1 1 1 1 1 1
        </DataArray>
      </CellData>
      <Points>
        <DataArray type="Float32" Name="Coordinates" NumberOfComponents="3" format="ascii">
          0 -0.04 -0.15 0.008 -0.04 -0.15 0 -0.032 -0.15 0.008 -0.032 -0.15
          0 -0.04 -0.142105 0.008 -0.04 -0.142105 0 -0.032 -0.142105 0.008 -0.032 -0.142105
          0.016 -0.04 -0.15 0.016 -0.032 -0.15 0.016 -0.04 -0.142105 0.016 -0.032 -0.142105
          0.024 -0.04 -0.15 0.024 -0.032 -0.15 0.024 -0.04 -0.142105 0.024 -0.032 -0.142105
          0.032 -0.04 -0.15 0.032 -0.032 -0.15 0.032 -0.04 -0.142105 0.032 -0.032 -0.142105
          0.04 -0.04 -0.15 0.04 -0.032 -0.15 0.04 -0.04 -0.142105 0.04 -0.032 -0.142105
          0 -0.024 -0.15 0.008 -0.024 -0.15 0 -0.024 -0.142105 0.008 -0.024 -0.142105
          0.016 -0.024 -0.15 0.016 -0.024 -0.142105 0.024 -0.024 -0.15 0.024 -0.024 -0.142105
          0.032 -0.024 -0.15 0.032 -0.024 -0.142105 0.04 -0.024 -0.15 0.04 -0.024 -0.142105
          0 -0.016 -0.15 0.008 -0.016 -0.15 0 -0.016 -0.142105 0.008 -0.016 -0.142105
          0.016 -0.016 -0.15 0.016 -0.016 -0.142105 0.024 -0.016 -0.15 0.024 -0.016 -0.142105
          0.032 -0.016 -0.15 0.032 -0.016 -0.142105 0.04 -0.016 -0.15 0.04 -0.016 -0.142105
          0 -0.008 -0.15 0.008 -0.008 -0.15 0 -0.008 -0.142105 0.008 -0.008 -0.142105
          0.016 -0.008 -0.15 0.016 -0.008 -0.142105 0.024 -0.008 -0.15 0.024 -0.008 -0.142105
          0.032 -0.008 -0.15 0.032 -0.008 -0.142105 0.04 -0.008 -0.15 0.04 -0.008 -0.142105
          0 0 -0.15 0.008 0 -0.15 0 0 -0.142105 0.008 0 -0.142105
          0.016 0 -0.15 0.016 0 -0.142105 0.024 0 -0.15 0.024 0 -0.142105
          0.032 0 -0.15 0.032 0 -0.142105 0.04 0 -0.15 0.04 0 -0.142105
          0 0.008 -0.15 0.008 0.008 -0.15 0 0.008 -0.142105 0.008 0.008 -0.142105
          0.016 0.008 -0.15 0.016 0.008 -0.142105 0.024 0.008 -0.15 0.024 0.008 -0.142105
          0.032 0.008 -0.15 0.032 0.008 -0.142105 0.04 0.008 -0.15 0.04 0.008 -0.142105
          0 0.016 -0.15 0.008 0.016 -0.15 0 0.016 -0.142105 0.008 0.016 -0.142105
          0.016 0.016 -0.15 0.016 0.016 -0.142105 0.024 0.016 -0.15 0.024 0.016 -0.142105
          0.032 0.016 -0.15 0.032 0.016 -0.142105 0.04 0.016 -0.15 0.04 0.016 -0.142105
          0 0.024 -0.15 0.008 0.024 -0.15 0 0.024 -0.142105 0.008 0.024 -0.142105
          0.016 0.024 -0.15 0.016 0.024 -0.142105 0.024 0.024 -0.15 0.024 0.024 -0.142105
          0.032 0.024 -0.15 0.032 0.024 -0.142105 0.04 0.024 -0.15 0.04 0.024 -0.142105
          0 0.032 -0.15 0.008 0.032 -0.15 0 0.032 -0.142105 0.008 0.032 -0.142105
          0.016 0.032 -0.15 0.016 0.032 -0.142105 0.024 0.032 -0.15 0.024 0.032 -0.142105
          0.032 0.032 -0.15 0.032 0.032 -0.142105 0.04 0.032 -0.15 0.04 0.032 -0.142105
          0 0.04 -0.15 0.008 0.04 -0.15 0 0.04 -0.142105 0.008 0.04 -0.142105
          0.016 0.04 -0.15 0.016 0.04 -0.142105 0.024 0.04 -0.15 0.024 0.04 -0.142105
          0.032 0.04 -0.15 0.032 0.04 -0.142105 0.04 0.04 -0.15 0.04 0.04 -0.142105
          0 -0.04 -0.134211 0.008 -0.04 -0.134211 0 -0.032 -0.134211 0.008 -0.032 -0.134211
          0.016 -0.04 -0.134211 0.016 -0.032 -0.134211 0.024 -0.04 -0.134211 0.024 -0.032 -0.134211
          0.032 -0.04 -0.134211 0.032 -0.032 -0.134211 0.04 -0.04 -0.134211 0.04 -0.032 -0.134211
          0 -0.024 -0.134211 0.008 -0.024 -0.134211 0.016 -0.024 -0.134211 0.024 -0.024 -0.134211
          0.032 -0.024 -0.134211 0.04 -0.024 -0.134211 0 -0.016 -0.134211 0.008 -0.016 -0.134211
          0.016 -0.016 -0.134211 0.024 -0.016 -0.134211 0.032 -0.016 -0.134211 0.04 -0.016 -0.134211
          0 -0.008 -0.134211 0.008 -0.008 -0.134211 0.016 -0.008 -0.134211 0.024 -0.008 -0.134211
          0.032 -0.008 -0.134211 0.04 -0.008 -0.134211 0 0 -0.134211 0.008 0 -0.134211
          0.016 0 -0.134211 0.024 0 -0.134211 0.032 0 -0.134211 0.04 0 -0.134211
          0 0.008 -0.134211 0.008 0.008 -0.134211 0.016 0.008 -0.134211 0.024 0.008 -0.134211
          0.032 0.008 -0.134211 0.04 0.008 -0.134211 0 0.016 -0.134211 0.008 0.016 -0.134211
          0.016 0.016 -0.134211 0.024 0.016 -0.134211 0.032 0.016 -0.134211 0.04 0.016 -0.134211
          0 0.024 -0.134211 0.008 0.024 -0.134211 0.016 0.024 -0.134211 0.024 0.024 -0.134211
          0.032 0.024 -0.134211 0.04 0.024 -0.134211 0 0.032 -0.134211 0.008 0.032 -0.134211
          0.016 0.032 -0.134211 0.024 0.032 -0.134211 0.032 0.032 -0.134211 0.04 0.032 -0.134211
          0 0.04 -0.134211 0.008 0.04 -0.134211 0.016 0.04 -0.134211 0.024 0.04 -0.134211
          0.032 0.04 -0.134211 0.04 0.04 -0.134211 0 -0.04 -0.126316 0.008 -0.04 -0.126316
          0 -0.032 -0.126316 0.008 -0.032 -0.126316 0.016 -0.04 -0.126316 0.016 -0.032 -0.126316
          0.024 -0.04 -0.126316 0.024 -0.032 -0.126316 0.032 -0.04 -0.126316 0.032 -0.032 -0.126316
          0.04 -0.04 -0.126316 0.04 -0.032 -0.126316 0 -0.024 -0.126316 0.008 -0.024 -0.126316
          0.016 -0.024 -0.126316 0.024 -0.024 -0.126316 0.032 -0.024 -0.126316 0.04 -0.024 -0.126316
          0 -0.016 -0.126316 0.008 -0.016 -0.126316 0.016 -0.016 -0.126316 0.024 -0.016 -0.126316
          0.032 -0.016 -0.126316 0.04 -0.016 -0.126316 0 -0.008 -0.126316 0.008 -0.008 -0.126316
          0.016 -0.008 -0.126316 0.024 -0.008 -0.126316 0.032 -0.008 -0.126316 0.04 -0.008 -0.126316
          0 0 -0.126316 0.008 0 -0.126316 0.016 0 -0.126316 0.024 0 -0.126316
          0.032 0 -0.126316 0.04 0 -0.126316 0 0.008 -0.126316 0.008 0.008 -0.126316
          0.016 0.008 -0.126316 0.024 0.008 -0.126316 0.032 0.008 -0.126316 0.04 0.008 -0.126316
          0 0.016 -0.126316 0.008 0.016 -0.126316 0.016 0.016 -0.126316 0.024 0.016 -0.126316
          0.032 0.016 -0.126316 0.04 0.016 -0.126316 0 0.024 -0.126316 0.008 0.024 -0.126316
          0.016 0.024 -0.126316 0.024 0.024 -0.126316 0.032 0.024 -0.126316 0.04 0.024 -0.126316
          0 0.032 -0.126316 0.008 0.032 -0.126316 0.016 0.032 -0.126316 0.024 0.032 -0.126316
          0.032 0.032 -0.126316 0.04 0.032 -0.126316 0 0.04 -0.126316 0.008 0.04 -0.126316
          0.016 0.04 -0.126316 0.024 0.04 -0.126316 0.032 0.04 -0.126316 0.04 0.04 -0.126316
          0 -0.04 -0.118421 0.008 -0.04 -0.118421 0 -0.032 -0.118421 0.008 -0.032 -0.118421
          0.016 -0.04 -0.118421 0.016 -0.032 -0.118421 0.024 -0.04 -0.118421 0.024 -0.032 -0.118421
          0.032 -0.04 -0.118421 0.032 -0.032 -0.118421 0.04 -0.04 -0.118421 0.04 -0.032 -0.118421
          0 -0.024 -0.118421 0.008 -0.024 -0.118421 0.016 -0.024 -0.118421 0.024 -0.024 -0.118421
          0.032 -0.024 -0.118421 0.04 -0.024 -0.118421 0 -0.016 -0.118421 0.008 -0.016 -0.118421
          0.016 -0.016 -0.118421 0.024 -0.016 -0.118421 0.032 -0.016 -0.118421 0.04 -0.016 -0.118421
          0 -0.008 -0.118421 0.008 -0.008 -0.118421 0.016 -0.008 -0.118421 0.024 -0.008 -0.118421
          0.032 -0.008 -0.118421 0.04 -0.008 -0.118421 0 0 -0.118421 0.008 0 -0.118421
          0.016 0 -0.118421 0.024 0 -0.118421 0.032 0 -0.118421 0.04 0 -0.118421
          0 0.008 -0.118421 0.008 0.008 -0.118421 0.016 0.008 -0.118421 0.024 0.008 -0.118421
          0.032 0.008 -0.118421 0.04 0.008 -0.118421 0 0.016 -0.118421 0.008 0.016 -0.118421
          0.016 0.016 -0.118421 0.024 0.016 -0.118421 0.032 0.016 -0.118421 0.04 0.016 -0.118421
          0 0.024 -0.118421 0.008 0.024 -0.118421 0.016 0.024 -0.118421 0.024 0.024 -0.118421
          0.032 0.024 -0.118421 0.04 0.024 -0.118421 0 0.032 -0.118421 0.008 0.032 -0.118421
          0.016 0.032 -0.118421 0.024 0.032 -0.118421 0.032 0.032 -0.118421 0.04 0.032 -0.118421
          0 0.04 -0.118421 0.008 0.04 -0.118421 0.016 0.04 -0.118421 0.024 0.04 -0.118421
          0.032 0.04 -0.118421 0.04 0.04 -0.118421 0 -0.04 -0.110526 0.008 -0.04 -0.110526
          0 -0.032 -0.110526 0.008 -0.032 -0.110526 0.016 -0.04 -0.110526 0.016 -0.032 -0.110526
          0.024 -0.04 -0.110526 0.024 -0.032 -0.110526 0.032 -0.04 -0.110526 0.032 -0.032 -0.110526
          0.04 -0.04 -0.110526 0.04 -0.032 -0.110526 0 -0.024 -0.110526 0.008 -0.024 -0.110526
          0.016 -0.024 -0.110526 0.024 -0.024 -0.110526 0.032 -0.024 -0.110526 0.04 -0.024 -0.110526
          0 -0.016 -0.110526 0.008 -0.016 -0.110526 0.016 -0.016 -0.110526 0.024 -0.016 -0.110526
          0.032 -0.016 -0.110526 0.04 -0.016 -0.110526 0 -0.008 -0.110526 0.008 -0.008 -0.110526
          0.016 -0.008 -0.110526 0.024 -0.008 -0.110526 0.032 -0.008 -0.110526 0.04 -0.008 -0.110526
          0 0 -0.110526 0.008 0 -0.110526 0.016 0 -0.110526 0.024 0 -0.110526
          0.032 0 -0.110526 0.04 0 -0.110526 0 0.008 -0.110526 0.008 0.008 -0.110526
          0.016 0.008 -0.110526 0.024 0.008 -0.110526 0.032 0.008 -0.110526 0.04 0.008 -0.110526
          0 0.016 -0.110526 0.008 0.016 -0.110526 0.016 0.016 -0.110526 0.024 0.016 -0.110526
          0.032 0.016 -0.110526 0.04 0.016 -0.110526 0 0.024 -0.110526 0.008 0.024 -0.110526
          0.016 0.024 -0.110526 0.024 0.024 -0.110526 0.032 0.024 -0.110526 0.04 0.024 -0.110526
          0 0.032 -0.110526 0.008 0.032 -0.110526 0.016 0.032 -0.110526 0.024 0.032 -0.110526
          0.032 0.032 -0.110526 0.04 0.032 -0.110526 0 0.04 -0.110526 0.008 0.04 -0.110526
          0.016 0.04 -0.110526 0.024 0.04 -0.110526 0.032 0.04 -0.110526 0.04 0.04 -0.110526
          0 -0.04 -0.102632 0.008 -0.04 -0.102632 0 -0.032 -0.102632 0.008 -0.032 -0.102632
          0.016 -0.04 -0.102632 0.016 -0.032 -0.102632 0.024 -0.04 -0.102632 0.024 -0.032 -0.102632
          0.032 -0.04 -0.102632 0.032 -0.032 -0.102632 0.04 -0.04 -0.102632 0.04 -0.032 -0.102632
          0 -0.024 -0.102632 0.008 -0.024 -0.102632 0.016 -0.024 -0.102632 0.024 -0.024 -0.102632
          0.032 -0.024 -0.102632 0.04 -0.024 -0.102632 0 -0.016 -0.102632 0.008 -0.016 -0.102632
          0.016 -0.016 -0.102632 0.024 -0.016 -0.102632 0.032 -0.016 -0.102632 0.04 -0.016 -0.102632
          0 -0.008 -0.102632 0.008 -0.008 -0.102632 0.016 -0.008 -0.102632 0.024 -0.008 -0.102632
          0.032 -0.008 -0.102632 0.04 -0.008 -0.102632 0 0 -0.102632 0.008 0 -0.102632
          0.016 0 -0.102632 0.024 0 -0.102632 0.032 0 -0.102632 0.04 0 -0.102632
          0 0.008 -0.102632 0.008 0.008 -0.102632 0.016 0.008 -0.102632 0.024 0.008 -0.102632
          0.032 0.008 -0.102632 0.04 0.008 -0.102632 0 0.016 -0.102632 0.008 0.016 -0.102632
          0.016 0.016 -0.102632 0.024 0.016 -0.102632 0.032 0.016 -0.102632 0.04 0.016 -0.102632
          0 0.024 -0.102632 0.008 0.024 -0.102632 0.016 0.024 -0.102632 0.024 0.024 -0.102632
          0.032 0.024 -0.102632 0.04 0.024 -0.102632 0 0.032 -0.102632 0.008 0.032 -0.102632
          0.016 0.032 -0.102632 0.024 0.032 -0.102632 0.032 0.032 -0.102632 0.04 0.032 -0.102632
          0 0.04 -0.102632 0.008 0.04 -0.102632 0.016 0.04 -0.102632 0.024 0.04 -0.102632
          0.032 0.04 -0.102632 0.04 0.04 -0.102632 0 -0.04 -0.0947368 0.008 -0.04 -0.0947368
          0 -0.032 -0.0947368 0.008 -0.032 -0.0947368 0.016 -0.04 -0.0947368 0.016 -0.032 -0.0947368
          0.024 -0.04 -0.0947368 0.024 -0.032 -0.0947368 0.032 -0.04 -0.0947368 0.032 -0.032 -0.0947368
          0.04 -0.04 -0.0947368 0.04 -0.032 -0.0947368 0 -0.024 -0.0947368 0.008 -0.024 -0.0947368
          0.016 -0.024 -0.0947368 0.024 -0.024 -0.0947368 0.032 -0.024 -0.0947368 0.04 -0.024 -0.0947368
          0 -0.016 -0.0947368 0.008 -0.016 -0.0947368 0.016 -0.016 -0.0947368 0.024 -0.016 -0.0947368
          0.032 -0.016 -0.0947368 0.04 -0.016 -0.0947368 0 -0.008 -0.0947368 0.008 -0.008 -0.0947368
          0.016 -0.008 -0.0947368 0.024 -0.008 -0.0947368 0.032 -0.008 -0.0947368 0.04 -0.008 -0.0947368
          0 0 -0.0947368 0.008 0 -0.0947368 0.016 0 -0.0947368 0.024 0 -0.0947368
          0.032 0 -0.0947368 0.04 0 -0.0947368 0 0.008 -0.0947368 0.008 0.008 -0.0947368
          0.016 0.008 -0.0947368 0.024 0.008 -0.0947368 0.032 0.008 -0.0947368 0.04 0.008 -0.0947368
          0 0.016 -0.0947368 0.008 0.016 -0.0947368 0.016 0.016 -0.0947368 0.024 0.016 -0.0947368
          0.032 0.016 -0.0947368 0.04 0.016 -0.0947368 0 0.024 -0.0947368 0.008 0.024 -0.0947368
          0.016 0.024 -0.0947368 0.024 0.024 -0.0947368 0.032 0.024 -0.0947368 0.04 0.024 -0.0947368
          0 0.032 -0.0947368 0.008 0.032 -0.0947368 0.016 0.032 -0.0947368 0.024 0.032 -0.0947368
          0.032 0.032 -0.0947368 0.04 0.032 -0.0947368 0 0.04 -0.0947368 0.008 0.04 -0.0947368
          0.016 0.04 -0.0947368 0.024 0.04 -0.0947368 0.032 0.04 -0.0947368 0.04 0.04 -0.0947368
          0 -0.04 -0.0868421 0.008 -0.04 -0.0868421 0 -0.032 -0.0868421 0.008 -0.032 -0.0868421
          0.016 -0.04 -0.0868421 0.016 -0.032 -0.0868421 0.024 -0.04 -0.0868421 0.024 -0.032 -0.0868421
          0.032 -0.04 -0.0868421 0.032 -0.032 -0.0868421 0.04 -0.04 -0.0868421 0.04 -0.032 -0.0868421
          0 -0.024 -0.0868421 0.008 -0.024 -0.0868421 0.016 -0.024 -0.0868421 0.024 -0.024 -0.0868421
          0.032 -0.024 -0.0868421 0.04 -0.024 -0.0868421 0 -0.016 -0.0868421 0.008 -0.016 -0.0868421
          0.016 -0.016 -0.0868421 0.024 -0.016 -0.0868421 0.032 -0.016 -0.0868421 0.04 -0.016 -0.0868421
          0 -0.008 -0.0868421 0.008 -0.008 -0.0868421 0.016 -0.008 -0.0868421 0.024 -0.008 -0.0868421
          0.032 -0.008 -0.0868421 0.04 -0.008 -0.0868421 0 0 -0.0868421 0.008 0 -0.0868421
          0.016 0 -0.0868421 0.024 0 -0.0868421 0.032 0 -0.0868421 0.04 0 -0.0868421
          0 0.008 -0.0868421 0.008 0.008 -0.0868421 0.016 0.008 -0.0868421 0.024 0.008 -0.0868421
          0.032 0.008 -0.0868421 0.04 0.008 -0.0868421 0 0.016 -0.0868421 0.008 0.016 -0.0868421
          0.016 0.016 -0.0868421 0.024 0.016 -0.0868421 0.032 0.016 -0.0868421 0.04 0.016 -0.0868421
          0 0.024 -0.0868421 0.008 0.024 -0.0868421 0.016 0.024 -0.0868421 0.024 0.024 -0.0868421
          0.032 0.024 -0.0868421 0.04 0.024 -0.0868421 0 0.032 -0.0868421 0.008 0.032 -0.0868421
          0.016 0.032 -0.0868421 0.024 0.032 -0.0868421 0.032 0.032 -0.0868421 0.04 0.032 -0.0868421
          0 0.04 -0.0868421 0.008 0.04 -0.0868421 0.016 0.04 -0.0868421 0.024 0.04 -0.0868421
          0.032 0.04 -0.0868421 0.04 0.04 -0.0868421 0 -0.04 -0.0789474 0.008 -0.04 -0.0789474
          0 -0.032 -0.0789474 0.008 -0.032 -0.0789474 0.016 -0.04 -0.0789474 0.016 -0.032 -0.0789474
          0.024 -0.04 -0.0789474 0.024 -0.032 -0.0789474 0.032 -0.04 -0.0789474 0.032 -0.032 -0.0789474
          0.04 -0.04 -0.0789474 0.04 -0.032 -0.0789474 0 -0.024 -0.0789474 0.008 -0.024 -0.0789474
          0.016 -0.024 -0.0789474 0.024 -0.024 -0.0789474 0.032 -0.024 -0.0789474 0.04 -0.024 -0.0789474
          0 -0.016 -0.0789474 0.008 -0.016 -0.0789474 0.016 -0.016 -0.0789474 0.024 -0.016 -0.0789474
          0.032 -0.016 -0.0789474 0.04 -0.016 -0.0789474 0 -0.008 -0.0789474 0.008 -0.008 -0.0789474
          0.016 -0.008 -0.0789474 0.024 -0.008 -0.0789474 0.032 -0.008 -0.0789474 0.04 -0.008 -0.0789474
          0 0 -0.0789474 0.008 0 -0.0789474 0.016 0 -0.0789474 0.024 0 -0.0789474
          0.032 0 -0.0789474 0.04 0 -0.0789474 0 0.008 -0.0789474 0.008 0.008 -0.0789474
          0.016 0.008 -0.0789474 0.024 0.008 -0.0789474 0.032 0.008 -0.0789474 0.04 0.008 -0.0789474
          0 0.016 -0.0789474 0.008 0.016 -0.0789474 0.016 0.016 -0.0789474 0.024 0.016 -0.0789474
          0.032 0.016 -0.0789474 0.04 0.016 -0.0789474 0 0.024 -0.0789474 0.008 0.024 -0.0789474
          0.016 0.024 -0.0789474 0.024 0.024 -0.0789474 0.032 0.024 -0.0789474 0.04 0.024 -0.0789474
          0 0.032 -0.0789474 0.008 0.032 -0.0789474 0.016 0.032 -0.0789474 0.024 0.032 -0.0789474
          0.032 0.032 -0.0789474 0.04 0.032 -0.0789474 0 0.04 -0.0789474 0.008 0.04 -0.0789474
          0.016 0.04 -0.0789474 0.024 0.04 -0.0789474 0.032 0.04 -0.0789474 0.04 0.04 -0.0789474
        </DataArray>
      </Points>
      <Cells>
        <DataArray type="Int32" Name="connectivity" NumberOfComponents="1" format="ascii">
          0 1 3 2 4 5 7 6 1 8 9 3
          5 10 11 7 8 12 13 9 10 14 15 11
          12 16 17 13 14 18 19 15 16 20 21 17
          18 22 23 19 2 3 25 24 6 7 27 26
          3 9 28 25 7 11 29 27 9 13 30 28
          11 15 31 29 13 17 32 30 15 19 33 31
          17 21 34 32 19 23 35 33 24 25 37 36
          26 27 39 38 25 28 40 37 27 29 41 39
          28 30 42 40 29 31 43 41 30 32 44 42
          31 33 45 43 32 34 46 44 33 35 47 45
          36 37 49 48 38 39 51 50 37 40 52 49
          39 41 53 51 40 42 54 52 41 43 55 53
          42 44 56 54 43 45 57 55 44 46 58 56
          45 47 59 57 48 49 61 60 50 51 63 62
          49 52 64 61 51 53 65 63 52 54 66 64
          53 55 67 65 54 56 68 66 55 57 69 67
          56 58 70 68 57 59 71 69 60 61 73 72
          62 63 75 74 61 64 76 73 63 65 77 75
          64 66 78 76 65 67 79 77 66 68 80 78
          67 69 81 79 68 70 82 80 69 71 83 81
          72 73 85 84 74 75 87 86 73 76 88 85
          75 77 89 87 76 78 90 88 77 79 91 89
          78 80 92 90 79 81 93 91 80 82 94 92
          81 83 95 93 84 85 97 96 86 87 99 98
          85 88 100 97 87 89 101 99 88 90 102 100
          89 91 103 101 90 92 104 102 91 93 105 103
          92 94 106 104 93 95 107 105 96 97 109 108
          98 99 111 110 97 100 112 109 99 101 113 111
          100 102 114 112 101 103 115 113 102 104 116 114
          103 105 117 115 104 106 118 116 105 107 119 117
          108 109 121 120 110 111 123 122 109 112 124 121
          111 113 125 123 112 114 126 124 113 115 127 125
          114 116 128 126 115 117 129 127 116 118 130 128
          117 119 131 129 4 5 7 6 132 133 135 134
          5 10 11 7 133 136 137 135 10 14 15 11
          136 138 139 137 14 18 19 15 138 140 141 139
          18 22 23 19 140 142 143 141 6 7 27 26
          134 135 145 144 7 11 29 27 135 137 146 145
          11 15 31 29 137 139 147 146 15 19 33 31
          139 141 148 147 19 23 35 33 141 143 149 148
          26 27 39 38 144 145 151 150 27 29 41 39
          145 146 152 151 29 31 43 41 146 147 153 152
          31 33 45 43 147 148 154 153 33 35 47 45
          148 149 155 154 38 39 51 50 150 151 157 156
          39 41 53 51 151 152 158 157 41 43 55 53
          152 153 159 158 43 45 57 55 153 154 160 159
          45 47 59 57 154 155 161 160 50 51 63 62
          156 157 163 162 51 53 65 63 157 158 164 163
          53 55 67 65 158 159 165 164 55 57 69 67
          159 160 166 165 57 59 71 69 160 161 167 166
          62 63 75 74 162 163 169 168 63 65 77 75
          163 164 170 169 65 67 79 77 164 165 171 170
          67 69 81 79 165 166 172 171 69 71 83 81
          166 167 173 172 74 75 87 86 168 169 175 174
          75 77 89 87 169 170 176 175 77 79 91 89
          170 171 177 176 79 81 93 91 171 172 178 177
          81 83 95 93 172 173 179 178 86 87 99 98
          174 175 181 180 87 89 101 99 175 176 182 181
          89 91 103 101 176 177 183 182 91 93 105 103
          177 178 184 183 93 95 107 105 178 179 185 184
          98 99 111 110 180 181 187 186 99 101 113 111
          181 182 188 187 101 103 115 113 182 183 189 188
          103 105 117 115 183 184 190 189 105 107 119 117
          184 185 191 190 110 111 123 122 186 187 193 192
          111 113 125 123 187 188 194 193 113 115 127 125
          188 189 195 194 115 117 129 127 189 190 196 195
          117 119 131 129 190 191 197 196 132 133 135 134
          198 199 201 200 133 136 137 135 199 202 203 201
          136 138 139 137 202 204 205 203 138 140 141 139
          204 206 207 205 140 142 143 141 206 208 209 207
          134 135 145 144 200 201 211 210 135 137 146 145
          201 203 212 211 137 139 147 146 203 205 213 212
          139 141 148 147 205 207 214 213 141 143 149 148
          207 209 215 214 144 145 151 150 210 211 217 216
          145 146 152 151 211 212 218 217 146 147 153 152
          212 213 219 218 147 148 154 153 213 214 220 219
          148 149 155 154 214 215 221 220 150 151 157 156