<?xml version="1.0"?>
<VTKFile type="UnstructuredGrid" version="0.1" byte_order="LittleEndian">
  <UnstructuredGrid>
    <Piece NumberOfCells="500" NumberOfPoints="726">
      <CellData Scalars="p (Pa)">
        <DataArray type="Float32" Name="p (Pa)" NumberOfComponents="1" format="ascii">
          -9819.91 -16249.2 -29580.3 -47068.6 -67237.1 -12037.8 -21888.3 -45799.3 -72834.3 -102911 -14213.2 -31361.8
          -100049 -157751 -214641 -10754.1 -22106.5 -52736.8 -105937 -246441 -6081.72 -14668.6 -37579.9 -94682.5
          -288348 -1553.38 -9343.3 -32609.5 -122845 -1.02226e+06 3100.65 -3732.27 -24504.6 -92672.1 -143061 8044.83
          3920.45 -5889.23 -23192.5 -31271.8 11822.2 9444.88 4683.18 -1440.73 -4197.83 13781.3 12143.8 9143.55
          5775.19 4103.32 -15539.8 -24080.6 -43081.2 -64335.2 -87095.9 -19158.9 -36646.6 -103999 -146936 -169491
          -23938 -81627.6 -931142 -1.02779e+06 -971754 -15810 -33647.1 -104795 -178553 -348892 -7865.82 -16427.5
          -38162.2 -78721.7 -199984 -1340.18 -7091.47 -20923.8 -49744.9 -125069 4234.55 96.9191 -9305.43 -25525.8
          -40829 8976.68 6338.5 985.6 -6249.91 -10946.4 12363.1 10691.1 7585.87 3953.35 1801.31 14096.3
          12859.9 10670.5 8268.67 6823.94 -16185.7 -23389.3 -38422.8 -59091.1 -88392.9 -18367 -29439.8 -56412.1
          -90785.2 -162786 -19881.6 -38804.9 -113512 -204683 -973188 -14309.1 -26345.8 -60910.5 -157978 -1.03249e+06
          -6779.39 -13858 -30934.1 -65465.9 -154402 178.563 -4229.27 -13922.4 -30281.9 -53407.4 5968.78 3138.45
          -2624.96 -10847.6 -18523.3 10466.9 8670.68 5269.73 1030.63 -2198.36 13519.8 12329.3 10190.8 7732.24
          5984.41 15053 14133.8 12527.1 10743.8 9483.53 -13729.3 -19357.5 -31066.1 -49088.3 -75961.6 -14734.2
          -22094.6 -38437.2 -64508 -107398 -14904.9 -25113.5 -52115.2 -103210 -204487 -11287.3 -21352.5 -52322.5
          -150958 -313775 -4756.52 -11507.9 -29558.6 -72712.7 -148544 2034.18 -1922.55 -10915 -26733 -45645.6
          7737.36 5435.06 782.501 -5817.48 -11978 12012.9 10621.3 8016.14 4761.6 2070.54 14827.8 13909
          12264.6 10339.4 8808.6 16219 15501.1 14242.5 12806.1 11667.6 -10411.9 -15073.4 -24968.9 -40968
          -64052.8 -10904.8 -16807.6 -30393.6 -54969.2 -88718.1 -10827.8 -19372.8 -45017.9 -126217 -202570 -8386.69
          -20115.8 -87674 -981848 -1.04603e+06 -2537.86 -10069.6 -39336.9 -249208 -945727 3935.48 -2.14618 -10234.4
          -36082.5 -79536.2 9396.96 7308.73 2903.9 -4003.5 -11077.5 13439.4 12245.1 9977.34 7041.59 4481
          16065.8 15294.9 13903.1 12230.5 10810.6 17353.3 16753.4 15691.9 14446.9 13385.5 -7194.07 -11153.7
          -19602.2 -33484 -54041.2 -7320.18 -12066.8 -22774.8 -41880.8 -72893.8 -6820.95 -13025.1 -29167.2 -66562.1
          -159886 -4460.08 -11802.6 -35998.1 -139099 -1.0252e+06 419.271 -4904.66 -19612.6 -58370.4 -146516 6032.76
          2892.71 -4328.89 -17361.3 -34095.8 10966.2 9194.34 5597.8 414.406 -4703.97 14695.9 13656.4 11698.1
          9188.09 6927.91 17139.3 16461.9 15234.9 13742.8 12420.7 18340.2 17811.1 16868.1 15741.6 14737.6
          -4582.89 -8083.59 -15566.4 -27943.7 -46337 -4473.03 -8472.3 -17363.3 -33099.6 -59149.6 -3669.9 -8431.69
          -19861.1 -43280.7 -93630.3 -1312.69 -6368.83 -19506 -52330.3 -170441 2882.68 -1058.13 -10449.6 -28941.9
          -62811.8 7778.37 5223.1 -268.588 -9089.06 -20132.9 12234.9 10693 7641.36 3394.98 -917.475 15689.9
          14750.7 12991.9 10745.2 8659.6 17984.8 17362 16232.1 14848.1 13590.9 19119.7 18630.3 17754.3
          16697.1 15733.5 -2791.59 -6082.14 -13158.4 -24981.5 -42557.5 -2599.92 -6300.62 -14580.6 -29539.3 -55165
          -1724.03 -6000.33 -16224.2 -37539.6 -86496.4 526.463 -3889.52 -14974.8 -41355.8 -135773 4334.28 750.872
          -7717.14 -24468.9 -56935.7 8849.28 6435.06 1227.59 -7268.91 -18360.3 13049.7 11561.2 8596.24 4413.39
          82.3079 16354.5 15441.4 13721.9 11506.3 9438.86 18567.1 17962.5 16861.2 15504.9 14271.4 19665.3
          19191.7 18341.5 17311.2 16369.8 -1785.68 -5045.29 -12120.1 -24125.2 -42355.8 -1625.35 -5344.38 -13851.9
          -30028.9 -61834.1 -850.066 -5273.67 -16380 -42816.4 -137433 1213.37 -3540.65 -16418 -51845.8 -191210
          4828.57 830.055 -9629.34 -35657.6 -114184 9254.5 6596.41 465.176 -10952.3 -28690.8 13416.4 11822.7
          8528.76 3579.17 -1777.43 16697.2 15747.3 13927.1 11524.2 9295.02 18892.1 18278.1 17151.8 15755.3
          14502.7 19980.5 19506.6 18653.2 17617.8 16681.7 -1394.04 -4678.34 -11820.4 -23834.8 -41089.8 -1292.49
          -5116.63 -13963.4 -30702.9 -59750 -655.274 -5428.71 -18035 -49910.2 -147860 1215.97 -4356.71 -22479.7
          -107529 -1.02658e+06 4753.48 -85.3109 -15790.4 -91222.6 -1.02012e+06 9246.48 6183.89 -1698.84 -21075 -79004.5
          13475.3 11727.5 7923.26 1538.16 -6827.17 16790.2 15788 13824.9 11133.9 8572.54 18997.4 18367
          17201.4 15742.4 14445.6 20088.8 19609.4 18744 17692.9 16752.1
        </DataArray>
        <DataArray type="Float32" Name="saturation" NumberOfComponents="1" format="ascii">
          0.269143 0.266361 0.261305 0.255809 0.250638 0.268155 0.264115 0.256172 0.249376 0.24357 0.267215 0.260692
          0.244062 0.235883 0.230265 0.268723 0.264031 0.254246 0.243061 0.227784 0.270884 0.267022 0.258653 0.245015
          0.225021 0.273128 0.26936 0.260271 0.240427 0.206667 0.275608 0.272029 0.263128 0.245383 0.237668 0.278458
          0.276064 0.270976 0.263619 0.260723 0.280806 0.27931 0.276494 0.273186 0.271799 0.282088 0.281013 0.279125
          0.27712 0.276167 0.266656 0.263286 0.256967 0.251319 0.246437 0.265181 0.258949 0.243386 0.237181 0.23457
          0.263339 0.24752 0.207742 0.206606 0.207245 0.266543 0.259925 0.243252 0.233617 0.221777 0.270041 0.266287
          0.258469 0.248117 0.231549 0.273238 0.270404 0.264487 0.255059 0.240104 0.276241 0.273986 0.269377 0.262752
          0.257644 0.279023 0.277447 0.274458 0.270804 0.268637 0.281155 0.280086 0.278183 0.276082 0.274897 0.282298
          0.281479 0.280073 0.278593 0.277732 0.266387 0.263544 0.258387 0.2526 0.246187 0.265497 0.261354 0.253281
          0.245734 0.235308 0.264895 0.258268 0.24184 0.231126 0.207228 0.267174 0.262453 0.252148 0.235857 0.206555
          0.270552 0.267366 0.260838 0.251052 0.236276 0.274029 0.271783 0.267339 0.261062 0.254067 0.277232 0.275628
          0.272583 0.268681 0.265434 0.279945 0.278836 0.276829 0.274482 0.272799 0.281914 0.281133 0.279773 0.278271
          0.277241 0.282945 0.282323 0.281262 0.28012 0.279334 0.267421 0.265102 0.260793 0.255241 0.248699 0.266994
          0.264036 0.258383 0.251278 0.24282 0.266922 0.262903 0.254413 0.243519 0.231144 0.268486 0.264321 0.254357
          0.236688 0.223566 0.271525 0.268388 0.261313 0.249403 0.236982 0.275023 0.272939 0.268651 0.262313 0.256216
          0.278274 0.276924 0.27435 0.271011 0.268181 0.280929 0.280042 0.278441 0.276539 0.275043 0.282792 0.282173
          0.281091 0.279866 0.27892 0.283749 0.283252 0.282396 0.281444 0.280707 0.268876 0.266851 0.262956 0.257602
          0.251387 0.268656 0.266131 0.261024 0.253655 0.246125 0.26869 0.265096 0.256398 0.23994 0.231315 0.2698
          0.264802 0.246325 0.207126 0.206409 0.272627 0.269031 0.258103 0.227586 0.20756 0.276072 0.273934 0.268956
          0.25913 0.247948 0.279281 0.278018 0.275499 0.271895 0.268579 0.281861 0.281079 0.27964 0.27786 0.27638
          0.283642 0.28311 0.282169 0.281069 0.280162 0.284548 0.284124 0.283383 0.282534 0.281825 0.270356 0.268545
          0.265005 0.259979 0.253899 0.270297 0.268142 0.263777 0.257326 0.249363 0.270532 0.267725 0.261449 0.250795
          0.235637 0.27167 0.268258 0.259157 0.238179 0.206635 0.274157 0.271453 0.265001 0.252782 0.237233 0.277269
          0.275493 0.271734 0.265904 0.259777 0.28026 0.279156 0.277018 0.274154 0.271551 0.282702 0.282005 0.280726
          0.279152 0.277793 0.284396 0.283919 0.283069 0.282062 0.281193 0.285259 0.284876 0.284204 0.283418 0.28273
          0.27161 0.26994 0.266644 0.26188 0.256017 0.271664 0.26976 0.265903 0.260107 0.252586 0.27206 0.269779
          0.264903 0.256908 0.245207 0.273252 0.270747 0.265043 0.254355 0.234468 0.275487 0.273384 0.26886 0.261528
          0.251685 0.278298 0.276802 0.273794 0.269476 0.264796 0.281072 0.280088 0.278216 0.275771 0.273456 0.283382
          0.282739 0.281566 0.28012 0.27883 0.285001 0.284555 0.283758 0.282805 0.281961 0.285829 0.28547 0.284835
          0.284084 0.283412 0.272499 0.270884 0.267667 0.262952 0.257123 0.272596 0.270779 0.267059 0.261319 0.253604
          0.273041 0.270923 0.266371 0.258665 0.246553 0.274213 0.271951 0.266893 0.257484 0.238619 0.276297 0.274333
          0.270111 0.263141 0.253146 0.278945 0.277504 0.274587 0.270321 0.2655 0.281604 0.280639 0.278791 0.276341
          0.273979 0.283844 0.283211 0.282048 0.280603 0.279306 0.285424 0.284985 0.2842 0.283255 0.282416 0.286233
          0.285882 0.285259 0.284519 0.283854 0.273009 0.271384 0.268119 0.263269 0.257183 0.273091 0.271239 0.267369
          0.26115 0.251922 0.273491 0.271273 0.266307 0.257046 0.238398 0.27458 0.272124 0.266291 0.254485 0.232366
          0.276577 0.274375 0.26923 0.259267 0.241735 0.279193 0.277598 0.274181 0.268635 0.261616 0.281846 0.280806
          0.27875 0.275873 0.273014 0.284084 0.283422 0.282185 0.280615 0.279218 0.285662 0.285213 0.284405 0.283427
          0.282571 0.286469 0.286115 0.285487 0.284737 0.284073 0.27321 0.271563 0.26825 0.263377 0.257565 0.273263
          0.271349 0.267321 0.260917 0.252436 0.273593 0.271198 0.265631 0.255013 0.237067 0.274581 0.271721 0.263889
          0.242799 0.20662 0.276534 0.273891 0.266551 0.245652 0.206691 0.279188 0.277357 0.273054 0.264428 0.248059
          0.281884 0.280745 0.278385 0.274754 0.270529 0.284149 0.28345 0.282117 0.280366 0.278777 0.285739 0.285278
          0.28444 0.283418 0.282533 0.286551 0.286192 0.285553 0.284791 0.284123
        </DataArray>
        <DataArray type="Float32" Name="process rank" NumberOfComponents="1" format="ascii">
          2 2 2 2 2 2 2 2 2 2 2 2
          2 2 2 2 2 2 2 2 2 2 2 2
          2 2 2 2 2 2 2 2 2 2 2 2
          2 2 2 2 2 2 2 2 2 2 2 2
          2 2 2 2 2 2 2 2 2 2 2 2
          2 2 2 2 2 2 2 2 2 2 2 2
          2 2 2 2 2 2 2 2 2 2 2 2
          2 2 2 2 2 2 2 2 2 2 2 2
          2 2 2 2 2 2 2 2 2 2 2 2
          2 2 2 2 2 2 2 2 2 2 2 2
          2 2 2 2 2 2 2 2 2 2 2 2
          2 2 2 2 2 2 2 2 2 2 2 2
          2 2 2 2 2 2 2 2 2 2 2 2
          2 2 2 2 2 2 2 2 2 2 2 2
          2 2 2 2 2 2 2 2 2 2 2 2
          2 2 2 2 2 2 2 2 2 2 2 2
          2 2 2 2 2 2 2 2 2 2 2 2
          2 2 2 2 2 2 2 2 2 2 2 2
          2 2 2 2 2 2 2 2 2 2 2 2
          2 2 2 2 2 2 2 2 2 2 2 2
          2 2 2 2 2 2 2 2 2 2 2 2
          2 2 2 2 2 2 2 2 2 2 2 2
          2 2 2 2 2 2 2 2 2 2 2 2
          2 2 2 2 2 2 2 2 2 2 2 2
          2 2 2 2 2 2 2 2 2 2 2 2
          2 2 2 2 2 2 2 2 2 2 2 2
          2 2 2 2 2 2 2 2 2 2 2 2
          2 2 2 2 2 2 2 2 2 2 2 2
          2 2 2 2 2 2 2 2 2 2 2 2
          2 2 2 2 2 2 2 2 2 2 2 2
          2 2 2 2 2 2 2 2 2 2 2 2
          2 2 2 2 2 2 2 2 2 2 2 2
          2 2 2 2 2 2 2 2 2 2 2 2
          2 2 2 2 2 2 2 2 2 2 2 2
          2 2 2 2 2 2 2 2 2 2 2 2
          2 2 2 2 2 2 2 2 2 2 2 2
          2 2 2 2 2 2 2 2 2 2 2 2
          2 2 2 2 2 2 2 2 2 2 2 2
          2 2 2 2 2 2 2 2 2 2 2 2
          2 2 2 2 2 2 2 2 2 2 2 2
          2 2 2 2 2 2 2 2 2 2 2 2
          2 2 2 2 2 2 2 2
        </DataArray>
      </CellData>
      <Points>
        <DataArray type="Float32" Name="Coordinates" NumberOfComponents="3" format="ascii">
          -0.04 -0.04 -0.0789474 -0.032 -0.04 -0.0789474 -0.04 -0.032 -0.0789474 -0.032 -0.032 -0.0789474
          -0.04 -0.04 -0.0710526 -0.032 -0.04 -0.0710526 -0.04 -0.032 -0.0710526 -0.032 -0.032 -0.0710526
          -0.024 -0.04 -0.0789474 -0.024 -0.032 -0.0789474 -0.024 -0.04 -0.0710526 -0.024 -0.032 -0.0710526
          -0.016 -0.04 -0.0789474 -0.016 -0.032 -0.0789474 -0.016 -0.04 -0.0710526 -0.016 -0.032 -0.0710526
          -0.008 -0.04 -0.0789474 -0.008 -0.032 -0.0789474 -0.008 -0.04 -0.0710526 -0.008 -0.032 -0.0710526
          0 -0.04 -0.0789474 0 -0.032 -0.0789474 0 -0.04 -0.0710526 0 -0.032 -0.0710526
          -0.04 -0.024 -0.0789474 -0.032 -0.024 -0.0789474 -0.04 -0.024 -0.0710526 -0.032 -0.024 -0.0710526
          -0.024 -0.024 -0.0789474 -0.024 -0.024 -0.0710526 -0.016 -0.024 -0.0789474 -0.016 -0.024 -0.0710526
          -0.008 -0.024 -0.0789474 -0.008 -0.024 -0.0710526 0 -0.024 -0.0789474 0 -0.024 -0.0710526
          -0.04 -0.016 -0.0789474 -0.032 -0.016 -0.0789474 -0.04 -0.016 -0.0710526 -0.032 -0.016 -0.0710526
          -0.024 -0.016 -0.0789474 -0.024 -0.016 -0.0710526 -0.016 -0.016 -0.0789474 -0.016 -0.016 -0.0710526
          -0.008 -0.016 -0.0789474 -0.008 -0.016 -0.0710526 0 -0.016 -0.0789474 0 -0.016 -0.0710526
          -0.04 -0.008 -0.0789474 -0.032 -0.008 -0.0789474 -0.04 -0.008 -0.0710526 -0.032 -0.008 -0.0710526
          -0.024 -0.008 -0.0789474 -0.024 -0.008 -0.0710526 -0.016 -0.008 -0.0789474 -0.016 -0.008 -0.0710526
          -0.008 -0.008 -0.0789474 -0.008 -0.008 -0.0710526 0 -0.008 -0.0789474 0 -0.008 -0.0710526
          -0.04 0 -0.0789474 -0.032 0 -0.0789474 -0.04 0 -0.0710526 -0.032 0 -0.0710526
          -0.024 0 -0.0789474 -0.024 0 -0.0710526 -0.016 0 -0.0789474 -0.016 0 -0.0710526
          -0.008 0 -0.0789474 -0.008 0 -0.0710526 0 0 -0.0789474 0 0 -0.0710526
          -0.04 0.008 -0.0789474 -0.032 0.008 -0.0789474 -0.04 0.008 -0.0710526 -0.032 0.008 -0.0710526
          -0.024 0.008 -0.0789474 -0.024 0.008 -0.0710526 -0.016 0.008 -0.0789474 -0.016 0.008 -0.0710526
          -0.008 0.008 -0.0789474 -0.008 0.008 -0.0710526 0 0.008 -0.0789474 0 0.008 -0.0710526
          -0.04 0.016 -0.0789474 -0.032 0.016 -0.0789474 -0.04 0.016 -0.0710526 -0.032 0.016 -0.0710526
          -0.024 0.016 -0.0789474 -0.024 0.016 -0.0710526 -0.016 0.016 -0.0789474 -0.016 0.016 -0.0710526
          -0.008 0.016 -0.0789474 -0.008 0.016 -0.0710526 0 0.016 -0.0789474 0 0.016 -0.0710526
          -0.04 0.024 -0.0789474 -0.032 0.024 -0.0789474 -0.04 0.024 -0.0710526 -0.032 0.024 -0.0710526
          -0.024 0.024 -0.0789474 -0.024 0.024 -0.0710526 -0.016 0.024 -0.0789474 -0.016 0.024 -0.0710526
          -0.008 0.024 -0.0789474 -0.008 0.024 -0.0710526 0 0.024 -0.0789474 0 0.024 -0.0710526
          -0.04 0.032 -0.0789474 -0.032 0.032 -0.0789474 -0.04 0.032 -0.0710526 -0.032 0.032 -0.0710526
          -0.024 0.032 -0.0789474 -0.024 0.032 -0.0710526 -0.016 0.032 -0.0789474 -0.016 0.032 -0.0710526
          -0.008 0.032 -0.0789474 -0.008 0.032 -0.0710526 0 0.032 -0.0789474 0 0.032 -0.0710526
          -0.04 0.04 -0.0789474 -0.032 0.04 -0.0789474 -0.04 0.04 -0.0710526 -0.032 0.04 -0.0710526
          -0.024 0.04 -0.0789474 -0.024 0.04 -0.0710526 -0.016 0.04 -0.0789474 -0.016 0.04 -0.0710526
          -0.008 0.04 -0.0789474 -0.008 0.04 -0.0710526 0 0.04 -0.0789474 0 0.04 -0.0710526
          -0.04 -0.04 -0.0631579 -0.032 -0.04 -0.0631579 -0.04 -0.032 -0.0631579 -0.032 -0.032 -0.0631579
          -0.024 -0.04 -0.0631579 -0.024 -0.032 -0.0631579 -0.016 -0.04 -0.0631579 -0.016 -0.032 -0.0631579
          -0.008 -0.04 -0.0631579 -0.008 -0.032 -0.0631579 0 -0.04 -0.0631579 0 -0.032 -0.0631579
          -0.04 -0.024 -0.0631579 -0.032 -0.024 -0.0631579 -0.024 -0.024 -0.0631579 -0.016 -0.024 -0.0631579
          -0.008 -0.024 -0.0631579 0 -0.024 -0.0631579 -0.04 -0.016 -0.0631579 -0.032 -0.016 -0.0631579
          -0.024 -0.016 -0.0631579 -0.016 -0.016 -0.0631579 -0.008 -0.016 -0.0631579 0 -0.016 -0.0631579
          -0.04 -0.008 -0.0631579 -0.032 -0.008 -0.0631579 -0.024 -0.008 -0.0631579 -0.016 -0.008 -0.0631579
          -0.008 -0.008 -0.0631579 0 -0.008 -0.0631579 -0.04 0 -0.0631579 -0.032 0 -0.0631579
          -0.024 0 -0.0631579 -0.016 0 -0.0631579 -0.008 0 -0.0631579 0 0 -0.0631579
          -0.04 0.008 -0.0631579 -0.032 0.008 -0.0631579 -0.024 0.008 -0.0631579 -0.016 0.008 -0.0631579
          -0.008 0.008 -0.0631579 0 0.008 -0.0631579 -0.04 0.016 -0.0631579 -0.032 0.016 -0.0631579
          -0.024 0.016 -0.0631579 -0.016 0.016 -0.0631579 -0.008 0.016 -0.0631579 0 0.016 -0.0631579
          -0.04 0.024 -0.0631579 -0.032 0.024 -0.0631579 -0.024 0.024 -0.0631579 -0.016 0.024 -0.0631579
          -0.008 0.024 -0.0631579 0 0.024 -0.0631579 -0.04 0.032 -0.0631579 -0.032 0.032 -0.0631579
          -0.024 0.032 -0.0631579 -0.016 0.032 -0.0631579 -0.008 0.032 -0.0631579 0 0.032 -0.0631579
          -0.04 0.04 -0.0631579 -0.032 0.04 -0.0631579 -0.024 0.04 -0.0631579 -0.016 0.04 -0.0631579
          -0.008 0.04 -0.0631579 0 0.04 -0.0631579 -0.04 -0.04 -0.0552632 -0.032 -0.04 -0.0552632
          -0.04 -0.032 -0.0552632 -0.032 -0.032 -0.0552632 -0.024 -0.04 -0.0552632 -0.024 -0.032 -0.0552632
          -0.016 -0.04 -0.0552632 -0.016 -0.032 -0.0552632 -0.008 -0.04 -0.0552632 -0.008 -0.032 -0.0552632
          0 -0.04 -0.0552632 0 -0.032 -0.0552632 -0.04 -0.024 -0.0552632 -0.032 -0.024 -0.0552632
          -0.024 -0.024 -0.0552632 -0.016 -0.024 -0.0552632 -0.008 -0.024 -0.0552632 0 -0.024 -0.0552632
          -0.04 -0.016 -0.0552632 -0.032 -0.016 -0.0552632 -0.024 -0.016 -0.0552632 -0.016 -0.016 -0.0552632
          -0.008 -0.016 -0.0552632 0 -0.016 -0.0552632 -0.04 -0.008 -0.0552632 -0.032 -0.008 -0.0552632
          -0.024 -0.008 -0.0552632 -0.016 -0.008 -0.0552632 -0.008 -0.008 -0.0552632 0 -0.008 -0.0552632
          -0.04 0 -0.0552632 -0.032 0 -0.0552632 -0.024 0 -0.0552632 -0.016 0 -0.0552632
          -0.008 0 -0.0552632 0 0 -0.0552632 -0.04 0.008 -0.0552632 -0.032 0.008 -0.0552632
          -0.024 0.008 -0.0552632 -0.016 0.008 -0.0552632 -0.008 0.008 -0.0552632 0 0.008 -0.0552632
          -0.04 0.016 -0.0552632 -0.032 0.016 -0.0552632 -0.024 0.016 -0.0552632 -0.016 0.016 -0.0552632
          -0.008 0.016 -0.0552632 0 0.016 -0.0552632 -0.04 0.024 -0.0552632 -0.032 0.024 -0.0552632
          -0.024 0.024 -0.0552632 -0.016 0.024 -0.0552632 -0.008 0.024 -0.0552632 0 0.024 -0.0552632
          -0.04 0.032 -0.0552632 -0.032 0.032 -0.0552632 -0.024 0.032 -0.0552632 -0.016 0.032 -0.0552632
          -0.008 0.032 -0.0552632 0 0.032 -0.0552632 -0.04 0.04 -0.0552632 -0.032 0.04 -0.0552632
          -0.024 0.04 -0.0552632 -0.016 0.04 -0.0552632 -0.008 0.04 -0.0552632 0 0.04 -0.0552632
          -0.04 -0.04 -0.0473684 -0.032 -0.04 -0.0473684 -0.04 -0.032 -0.0473684 -0.032 -0.032 -0.0473684
          -0.024 -0.04 -0.0473684 -0.024 -0.032 -0.0473684 -0.016 -0.04 -0.0473684 -0.016 -0.032 -0.0473684
          -0.008 -0.04 -0.0473684 -0.008 -0.032 -0.0473684 0 -0.04 -0.0473684 0 -0.032 -0.0473684
          -0.04 -0.024 -0.0473684 -0.032 -0.024 -0.0473684 -0.024 -0.024 -0.0473684 -0.016 -0.024 -0.0473684
          -0.008 -0.024 -0.0473684 0 -0.024 -0.0473684 -0.04 -0.016 -0.0473684 -0.032 -0.016 -0.0473684
          -0.024 -0.016 -0.0473684 -0.016 -0.016 -0.0473684 -0.008 -0.016 -0.0473684 0 -0.016 -0.0473684
          -0.04 -0.008 -0.0473684 -0.032 -0.008 -0.0473684 -0.024 -0.008 -0.0473684 -0.016 -0.008 -0.0473684
          -0.008 -0.008 -0.0473684 0 -0.008 -0.0473684 -0.04 0 -0.0473684 -0.032 0 -0.0473684
          -0.024 0 -0.0473684 -0.016 0 -0.0473684 -0.008 0 -0.0473684 0 0 -0.0473684
          -0.04 0.008 -0.0473684 -0.032 0.008 -0.0473684 -0.024 0.008 -0.0473684 -0.016 0.008 -0.0473684
          -0.008 0.008 -0.0473684 0 0.008 -0.0473684 -0.04 0.016 -0.0473684 -0.032 0.016 -0.0473684
          -0.024 0.016 -0.0473684 -0.016 0.016 -0.0473684 -0.008 0.016 -0.0473684 0 0.016 -0.0473684
          -0.04 0.024 -0.0473684 -0.032 0.024 -0.0473684 -0.024 0.024 -0.0473684 -0.016 0.024 -0.0473684
          -0.008 0.024 -0.0473684 0 0.024 -0.0473684 -0.04 0.032 -0.0473684 -0.032 0.032 -0.0473684
          -0.024 0.032 -0.0473684 -0.016 0.032 -0.0473684 -0.008 0.032 -0.0473684 0 0.032 -0.0473684
          -0.04 0.04 -0.0473684 -0.032 0.04 -0.0473684 -0.024 0.04 -0.0473684 -0.016 0.04 -0.0473684
          -0.008 0.04 -0.0473684 0 0.04 -0.0473684 -0.04 -0.04 -0.0394737 -0.032 -0.04 -0.0394737
          -0.04 -0.032 -0.0394737 -0.032 -0.032 -0.0394737 -0.024 -0.04 -0.0394737 -0.024 -0.032 -0.0394737
          -0.016 -0.04 -0.0394737 -0.016 -0.032 -0.0394737 -0.008 -0.04 -0.0394737 -0.008 -0.032 -0.0394737
          0 -0.04 -0.0394737 0 -0.032 -0.0394737 -0.04 -0.024 -0.0394737 -0.032 -0.024 -0.0394737
          -0.024 -0.024 -0.0394737 -0.016 -0.024 -0.0394737 -0.008 -0.024 -0.0394737 0 -0.024 -0.0394737
          -0.04 -0.016 -0.0394737 -0.032 -0.016 -0.0394737 -0.024 -0.016 -0.0394737 -0.016 -0.016 -0.0394737
          -0.008 -0.016 -0.0394737 0 -0.016 -0.0394737 -0.04 -0.008 -0.0394737 -0.032 -0.008 -0.0394737
          -0.024 -0.008 -0.0394737 -0.016 -0.008 -0.0394737 -0.008 -0.008 -0.0394737 0 -0.008 -0.0394737
          -0.04 0 -0.0394737 -0.032 0 -0.0394737 -0.024 0 -0.0394737 -0.016 0 -0.0394737
          -0.008 0 -0.0394737 0 0 -0.0394737 -0.04 0.008 -0.0394737 -0.032 0.008 -0.0394737
          -0.024 0.008 -0.0394737 -0.016 0.008 -0.0394737 -0.008 0.008 -0.0394737 0 0.008 -0.0394737
          -0.04 0.016 -0.0394737 -0.032 0.016 -0.0394737 -0.024 0.016 -0.0394737 -0.016 0.016 -0.0394737
          -0.008 0.016 -0.0394737 0 0.016 -0.0394737 -0.04 0.024 -0.0394737 -0.032 0.024 -0.0394737
          -0.024 0.024 -0.0394737 -0.016 0.024 -0.0394737 -0.008 0.024 -0.0394737 0 0.024 -0.0394737
          -0.04 0.032 -0.0394737 -0.032 0.032 -0.0394737 -0.024 0.032 -0.0394737 -0.016 0.032 -0.0394737
          -0.008 0.032 -0.0394737 0 0.032 -0.0394737 -0.04 0.04 -0.0394737 -0.032 0.04 -0.0394737
          -0.024 0.04 -0.0394737 -0.016 0.04 -0.0394737 -0.008 0.04 -0.0394737 0 0.04 -0.0394737
          -0.04 -0.04 -0.0315789 -0.032 -0.04 -0.0315789 -0.04 -0.032 -0.0315789 -0.032 -0.032 -0.0315789
          -0.024 -0.04 -0.0315789 -0.024 -0.032 -0.0315789 -0.016 -0.04 -0.0315789 -0.016 -0.032 -0.0315789
          -0.008 -0.04 -0.0315789 -0.008 -0.032 -0.0315789 0 -0.04 -0.0315789 0 -0.032 -0.0315789
          -0.04 -0.024 -0.0315789 -0.032 -0.024 -0.0315789 -0.024 -0.024 -0.0315789 -0.016 -0.024 -0.0315789
          -0.008 -0.024 -0.0315789 0 -0.024 -0.0315789 -0.04 -0.016 -0.0315789 -0.032 -0.016 -0.0315789
          -0.024 -0.016 -0.0315789 -0.016 -0.016 -0.0315789 -0.008 -0.016 -0.0315789 0 -0.016 -0.0315789
          -0.04 -0.008 -0.0315789 -0.032 -0.008 -0.0315789 -0.024 -0.008 -0.0315789 -0.016 -0.008 -0.0315789
          -0.008 -0.008 -0.0315789 0 -0.008 -0.0315789 -0.04 0 -0.0315789 -0.032 0 -0.0315789
          -0.024 0 -0.0315789 -0.016 0 -0.0315789 -0.008 0 -0.0315789 0 0 -0.0315789
          -0.04 0.008 -0.0315789 -0.032 0.008 -0.0315789 -0.024 0.008 -0.0315789 -0.016 0.008 -0.0315789
          -0.008 0.008 -0.0315789 0 0.008 -0.0315789 -0.04 0.016 -0.0315789 -0.032 0.016 -0.0315789
          -0.024 0.016 -0.0315789 -0.016 0.016 -0.0315789 -0.008 0.016 -0.0315789 0 0.016 -0.0315789
          -0.04 0.024 -0.0315789 -0.032 0.024 -0.0315789 -0.024 0.024 -0.0315789 -0.016 0.024 -0.0315789
          -0.008 0.024 -0.0315789 0 0.024 -0.0315789 -0.04 0.032 -0.0315789 -0.032 0.032 -0.0315789
          -0.024 0.032 -0.0315789 -0.016 0.032 -0.0315789 -0.008 0.032 -0.0315789 0 0.032 -0.0315789
          -0.04 0.04 -0.0315789 -0.032 0.04 -0.0315789 -0.024 0.04 -0.0315789 -0.016 0.04 -0.0315789
          -0.008 0.04 -0.0315789 0 0.04 -0.0315789 -0.04 -0.04 -0.0236842 -0.032 -0.04 -0.0236842
          -0.04 -0.032 -0.0236842 -0.032 -0.032 -0.0236842 -0.024 -0.04 -0.0236842 -0.024 -0.032 -0.0236842
          -0.016 -0.04 -0.0236842 -0.016 -0.032 -0.0236842 -0.008 -0.04 -0.0236842 -0.008 -0.032 -0.0236842
          0 -0.04 -0.0236842 0 -0.032 -0.0236842 -0.04 -0.024 -0.0236842 -0.032 -0.024 -0.0236842
          -0.024 -0.024 -0.0236842 -0.016 -0.024 -0.0236842 -0.008 -0.024 -0.0236842 0 -0.024 -0.0236842
          -0.04 -0.016 -0.0236842 -0.032 -0.016 -0.0236842 -0.024 -0.016 -0.0236842 -0.016 -0.016 -0.0236842
          -0.008 -0.016 -0.0236842 0 -0.016 -0.0236842 -0.04 -0.008 -0.0236842 -0.032 -0.008 -0.0236842
          -0.024 -0.008 -0.0236842 -0.016 -0.008 -0.0236842 -0.008 -0.008 -0.0236842 0 -0.008 -0.0236842
          -0.04 0 -0.0236842 -0.032 0 -0.0236842 -0.024 0 -0.0236842 -0.016 0 -0.0236842
          -0.008 0 -0.0236842 0 0 -0.0236842 -0.04 0.008 -0.0236842 -0.032 0.008 -0.0236842
          -0.024 0.008 -0.0236842 -0.016 0.008 -0.0236842 -0.008 0.008 -0.0236842 0 0.008 -0.0236842
          -0.04 0.016 -0.0236842 -0.032 0.016 -0.0236842 -0.024 0.016 -0.0236842 -0.016 0.016 -0.0236842
          -0.008 0.016 -0.0236842 0 0.016 -0.0236842 -0.04 0.024 -0.0236842 -0.032 0.024 -0.0236842
          -0.024 0.024 -0.0236842 -0.016 0.024 -0.0236842 -0.008 0.024 -0.0236842 0 0.024 -0.0236842
          -0.04 0.032 -0.0236842 -0.032 0.032 -0.0236842 -0.024 0.032 -0.0236842 -0.016 0.032 -0.0236842
          -0.008 0.032 -0.0236842 0 0.032 -0.0236842 -0.04 0.04 -0.0236842 -0.032 0.04 -0.0236842
          -0.024 0.04 -0.0236842 -0.016 0.04 -0.0236842 -0.008 0.04 -0.0236842 0 0.04 -0.0236842
          -0.04 -0.04 -0.0157895 -0.032 -0.04 -0.0157895 -0.04 -0.032 -0.0157895 -0.032 -0.032 -0.0157895
          -0.024 -0.04 -0.0157895 -0.024 -0.032 -0.0157895 -0.016 -0.04 -0.0157895 -0.016 -0.032 -0.0157895
          -0.008 -0.04 -0.0157895 -0.008 -0.032 -0.0157895 0 -0.04 -0.0157895 0 -0.032 -0.0157895
          -0.04 -0.024 -0.0157895 -0.032 -0.024 -0.0157895 -0.024 -0.024 -0.0157895 -0.016 -0.024 -0.0157895
          -0.008 -0.024 -0.0157895 0 -0.024 -0.0157895 -0.04 -0.016 -0.0157895 -0.032 -0.016 -0.0157895
          -0.024 -0.016 -0.0157895 -0.016 -0.016 -0.0157895 -0.008 -0.016 -0.0157895 0 -0.016 -0.0157895
          -0.04 -0.008 -0.0157895 -0.032 -0.008 -0.0157895 -0.024 -0.008 -0.0157895 -0.016 -0.008 -0.0157895
          -0.008 -0.008 -0.0157895 0 -0.008 -0.0157895 -0.04 0 -0.0157895 -0.032 0 -0.0157895
          -0.024 0 -0.0157895 -0.016 0 -0.0157895 -0.008 0 -0.0157895 0 0 -0.0157895
          -0.04 0.008 -0.0157895 -0.032 0.008 -0.0157895 -0.024 0.008 -0.0157895 -0.016 0.008 -0.0157895
          -0.008 0.008 -0.0157895 0 0.008 -0.0157895 -0.04 0.016 -0.0157895 -0.032 0.016 -0.0157895
          -0.024 0.016 -0.0157895 -0.016 0.016 -0.0157895 -0.008 0.016 -0.0157895 0 0.016 -0.0157895
          -0.04 0.024 -0.0157895 -0.032 0.024 -0.0157895 -0.024 0.024 -0.0157895 -0.016 0.024 -0.0157895
          -0.008 0.024 -0.0157895 0 0.024 -0.0157895 -0.04 0.032 -0.0157895 -0.032 0.032 -0.0157895
          -0.024 0.032 -0.0157895 -0.016 0.032 -0.0157895 -0.008 0.032 -0.0157895 0 0.032 -0.0157895
          -0.04 0.04 -0.0157895 -0.032 0.04 -0.0157895 -0.024 0.04 -0.0157895 -0.016 0.04 -0.0157895
          -0.008 0.04 -0.0157895 0 0.04 -0.0157895 -0.04 -0.04 -0.00789474 -0.032 -0.04 -0.00789474
          -0.04 -0.032 -0.00789474 -0.032 -0.032 -0.00789474 -0.024 -0.04 -0.00789474 -0.024 -0.032 -0.00789474
          -0.016 -0.04 -0.00789474 -0.016 -0.032 -0.00789474 -0.008 -0.04 -0.00789474 -0.008 -0.032 -0.00789474
          0 -0.04 -0.00789474 0 -0.032 -0.00789474 -0.04 -0.024 -0.00789474 -0.032 -0.024 -0.00789474
          -0.024 -0.024 -0.00789474 -0.016 -0.024 -0.00789474 -0.008 -0.024 -0.00789474 0 -0.024 -0.00789474
          -0.04 -0.016 -0.00789474 -0.032 -0.016 -0.00789474 -0.024 -0.016 -0.00789474 -0.016 -0.016 -0.00789474
          -0.008 -0.016 -0.00789474 0 -0.016 -0.00789474 -0.04 -0.008 -0.00789474 -0.032 -0.008 -0.00789474
          -0.024 -0.008 -0.00789474 -0.016 -0.008 -0.00789474 -0.008 -0.008 -0.00789474 0 -0.008 -0.00789474
          -0.04 0 -0.00789474 -0.032 0 -0.00789474 -0.024 0 -0.00789474 -0.016 0 -0.00789474
          -0.008 0 -0.00789474 0 0 -0.00789474 -0.04 0.008 -0.00789474 -0.032 0.008 -0.00789474
          -0.024 0.008 -0.00789474 -0.016 0.008 -0.00789474 -0.008 0.008 -0.00789474 0 0.008 -0.00789474
          -0.04 0.016 -0.00789474 -0.032 0.016 -0.00789474 -0.024 0.016 -0.00789474 -0.016 0.016 -0.00789474
          -0.008 0.016 -0.00789474 0 0.016 -0.00789474 -0.04 0.024 -0.00789474 -0.032 0.024 -0.00789474
          -0.024 0.024 -0.00789474 -0.016 0.024 -0.00789474 -0.008 0.024 -0.00789474 0 0.024 -0.00789474
          -0.04 0.032 -0.00789474 -0.032 0.032 -0.00789474 -0.024 0.032 -0.00789474 -0.016 0.032 -0.00789474
          -0.008 0.032 -0.00789474 0 0.032 -0.00789474 -0.04 0.04 -0.00789474 -0.032 0.04 -0.00789474
          -0.024 0.04 -0.00789474 -0.016 0.04 -0.00789474 -0.008 0.04 -0.00789474 0 0.04 -0.00789474
          -0.04 -0.04 3.46945e-18 -0.032 -0.04 3.46945e-18 -0.04 -0.032 3.46945e-18 -0.032 -0.032 3.46945e-18
          -0.024 -0.04 3.46945e-18 -0.024 -0.032 3.46945e-18 -0.016 -0.04 3.46945e-18 -0.016 -0.032 3.46945e-18
          -0.008 -0.04 3.46945e-18 -0.008 -0.032 3.46945e-18 0 -0.04 3.46945e-18 0 -0.032 3.46945e-18
          -0.04 -0.024 3.46945e-18 -0.032 -0.024 3.46945e-18 -0.024 -0.024 3.46945e-18 -0.016 -0.024 3.46945e-18
          -0.008 -0.024 3.46945e-18 0 -0.024 3.46945e-18 -0.04 -0.016 3.46945e-18 -0.032 -0.016 3.46945e-18
          -0.024 -0.016 3.46945e-18 -0.016 -0.016 3.46945e-18 -0.008 -0.016 3.46945e-18 0 -0.016 3.46945e-18
          -0.04 -0.008 3.46945e-18 -0.032 -0.008 3.46945e-18 -0.024 -0.008 3.46945e-18 -0.016 -0.008 3.46945e-18
          -0.008 -0.008 3.46945e-18 0 -0.008 3.46945e-18 -0.04 0 3.46945e-18 -0.032 0 3.46945e-18
          -0.024 0 3.46945e-18 -0.016 0 3.46945e-18 -0.008 0 3.46945e-18 0 0 3.46945e-18
          -0.04 0.008 3.46945e-18 -0.032 0.008 3.46945e-18 -0.024 0.008 3.46945e-18 -0.016 0.008 3.46945e-18
          -0.008 0.008 3.46945e-18 0 0.008 3.46945e-18 -0.04 0.016 3.46945e-18 -0.032 0.016 3.46945e-18
          -0.024 0.016 3.46945e-18 -0.016 0.016 3.46945e-18 -0.008 0.016 3.46945e-18 0 0.016 3.46945e-18
          -0.04 0.024 3.46945e-18 -0.032 0.024 3.46945e-18 -0.024 0.024 3.46945e-18 -0.016 0.024 3.46945e-18
          -0.008 0.024 3.46945e-18 0 0.024 3.46945e-18 -0.04 0.032 3.46945e-18 -0.032 0.032 3.46945e-18