<?xml version="1.0"?>
<VTKFile type="UnstructuredGrid" version="0.1" byte_order="LittleEndian">
  <UnstructuredGrid>
    <Piece NumberOfCells="450" NumberOfPoints="660">
      <CellData Scalars="p (Pa)">
        <DataArray type="Float32" Name="p (Pa)" NumberOfComponents="1" format="ascii">
          32595.6 32328.9 31844.3 31238.7 30644.5 32637.6 32363.4 31863.2 31234.8 30615.7 32741.8 32458.9
          31940.3 31283.7 30632.2 32933.6 32650 32129.1 31467.3 30807.4 33223.8 32952.6 32456.6 31831.1
          31213.5 33596.3 33348.8 32900 32341.6 31799.9 34009.4 33792.2 33402 32923.6 32467.8 34403.8
          34217.5 33885.5 33483.8 33105.6 34714 34552.4 34266.6 33923.5 33601.8 34884.7 34736.8 34476
          34164.2 33871.9 31671.9 31344.3 30745.5 29994.3 29266 31701.9 31360.1 30730.4 29930.5 29146.2
          31791.3 31431.7 30762.3 29896.5 29028 31978.1 31612.9 30930 30038.3 29127.2 32281 31930.5
          31279.9 30442.5 29607.1 32684.7 32365.3 31779.6 31042.8 30335.2 33144.5 32866.4 32362.8 31744.1
          31170.3 33593.1 33358.7 32940.3 32437.2 31981.3 33950.9 33752.5 33402.3 32987.5 32614.6 34149.3
          33970.9 33657.8 33289.5 32958.4 29853.6 29385.9 28517.9 27411.8 26350.5 29854.2 29353.5 28409.2
          27172.3 25945.7 29906.5 29362.4 28314 26882.6 25368.7 30078.2 29514.8 28419.5 26890.3 25178
          30405.3 29862 28819.9 27408.8 25927.7 30873.5 30377.3 29441.9 28222.7 27043.1 31434.3 31004.7
          30209.5 29209.3 28306.2 32004.3 31652.5 31016.7 30249.5 29592.3 32470.7 32184.9 31679.4 31088.3
          30592.9 32732.4 32483.2 32048 31547 31128 27058.1 26331.9 24946.8 23118.6 21349.1 27000.2
          26196.6 24617.4 22413.4 20108.6 26976.9 26068.5 24210.7 21391.9 17959.1 27113.8 26155.1 24166.9
          21023.7 16639.4 27473.3 26544.2 24663.7 21870.6 18544.2 28040.5 27181 25475.4 23063.8 20558.4
          28770.2 28022.8 26568.9 24596.3 22739.8 29559.1 28967.2 27862.1 26476.6 25327.8 30225.4 29769.7
          28952 27991.6 27244.4 30603.5 30222.7 29555.5 28798.1 28217.9 23193 22031.8 19723.4 16481.9
          13209.5 23029.6 21693 18893.6 14531.1 9346.32 22869 21287.8 17738.2 11254 500.162 22940.5
          21249.7 17398.4 9971.45 -5662.96 23335.4 21688.8 18092.4 11941.4 2767.05 24029.2 22457.5 19061.7
          13422 5957.83 25010.9 23613.5 20628.8 15786 9758.99 26170.3 25108.8 22997.8 20071 17457.6
          27181.5 26417.7 25001.2 23273.5 21985.7 27758.6 27153.3 26077 24851.6 23990 18207.7 16380.9
          12549.1 6648.68 88.7512 17874.6 15676.2 10646.8 1297.04 -13365.2 17493.9 14754.3 7676.03 -10345.1
          -69734.8 17473.5 14539.9 6965.92 -12728.6 -92930.3 17904.9 15029.5 8122.41 -6097.68 -34995.4 18728.9
          15819.5 8657.93 -7301.11 -48381.9 20049.6 17332.5 10524.4 -5233.08 -48409.8 21818.7 19874.9 15599.5
          8463.01 -83.0318 23396.8 22113.3 19603.4 16293.5 13744.5 24291.1 23337 21596.7 19569.1 18239.3
          12168.3 9467.18 3506.03 -6707.51 -20318.3 11605.4 8219.98 -313.28 -20671.3 -80063.1 10939.9 6484.93
          -7546.94 -74826.1 -960685 10858.5 6154.44 -7915.65 -65934.2 -693576 11357.6 6671.33 -5770.61 -37161.8
          -126355 12297.7 7106.65 -8219.15 -64221.5 -601447 14016.2 8684.77 -8899.16 -85405.5 -860688 16744.9
          13293.5 4534.94 -14775.7 -55677.8 19169.1 17125.4 12847.4 6567.52 1256.96 20509.4 19097.2 16439.4
          13243.1 11293.4 5282.71 1662.75 -6325.13 -20110.4 -39511.8 4466.08 -97.2383 -11460.1 -38028.8 -115570
          3565.58 -2437.84 -20757.6 -101741 -1.01429e+06 3632.82 -2615.7 -20041.2 -70332 -247102 4400.68 -2244.32
          -20665.6 -69863.6 -225233 5610.57 -2488.5 -29929.3 -143964 -1.02951e+06 7770.93 -2195.48 -58484.2 -803850
          -1.01428e+06 11800.8 6372.11 -10303.2 -65374.8 -88951.5 15218.7 12378.4 6026.04 -4202.52 -8717.97 17035.6
          15201.8 11669.6 7377.75 5351.61 -2223.24 -6908.67 -16804.3 -32130.2 -51981.8 -3455.16 -9540.5 -23464.1
          -47408.9 -89082.5 -4638.6 -12886.5 -34865.2 -79981 -215868 -3734.53 -11741.7 -32849.5 -83805.2 -251144
          -1808.62 -10035.1 -34482.2 -128340 -1.03612e+06 540.586 -8888.93 -41521 -177580 -1.06382e+06 3709.3 -7506.39
          -72718.5 -946241 -1.01618e+06 8636.87 2758.12 -15422.5 -76328.8 -88434.2 12600.3 9585.43 2875.67 -7764.83
          -11169.1 14660.6 12726.8 9026.81 4616.52 2745.57
        </DataArray>
        <DataArray type="Float32" Name="saturation" NumberOfComponents="1" format="ascii">
          0.297307 0.297045 0.296574 0.295991 0.295428 0.297349 0.297079 0.296592 0.295987 0.295401 0.297452 0.297173
          0.296667 0.296034 0.295416 0.297642 0.297361 0.29685 0.29621 0.295582 0.297931 0.297661 0.297171 0.296561
          0.295967 0.298305 0.298056 0.297608 0.297058 0.296531 0.298724 0.298504 0.29811 0.297632 0.297182 0.299128
          0.298937 0.298598 0.298192 0.297813 0.299449 0.299281 0.298987 0.298637 0.298311 0.299626 0.299472 0.299203
          0.298882 0.298584 0.296407 0.296092 0.295523 0.29482 0.29415 0.296436 0.296107 0.295509 0.294761 0.294041
          0.296522 0.296176 0.295539 0.294729 0.293933 0.296703 0.29635 0.295698 0.294861 0.294023 0.296999 0.296657
          0.296031 0.295238 0.294462 0.297395 0.297081 0.296511 0.295805 0.295137 0.297852 0.297575 0.297079 0.296477
          0.295926 0.298302 0.298066 0.297648 0.297152 0.296706 0.298665 0.298463 0.29811 0.297695 0.297326 0.298867
          0.298685 0.298367 0.297997 0.297666 0.29469 0.294259 0.293473 0.292492 0.291573 0.29469 0.29423 0.293375
          0.292282 0.291228 0.294739 0.294238 0.29329 0.292031 0.290741 0.294898 0.294377 0.293384 0.292038 0.290582
          0.295203 0.294697 0.293745 0.292489 0.291212 0.295644 0.295177 0.294311 0.293208 0.29217 0.296178 0.295768
          0.29502 0.294098 0.293283 0.296729 0.296388 0.29578 0.295057 0.294449 0.297185 0.296905 0.296414 0.295848
          0.295379 0.297442 0.297197 0.296771 0.296287 0.295886 0.292183 0.291557 0.290389 0.288899 0.28751 0.292133
          0.291441 0.290116 0.28834 0.286565 0.292113 0.291332 0.289782 0.287543 0.284983 0.292232 0.291406 0.289747
          0.28726 0.284043 0.292546 0.291739 0.290155 0.287914 0.285407 0.293046 0.29229 0.290831 0.288856 0.286905
          0.2937 0.293031 0.29176 0.290099 0.288598 0.294418 0.293878 0.292888 0.291681 0.290707 0.295035 0.294612
          0.293864 0.293003 0.292345 0.295389 0.295033 0.294415 0.293725 0.293204 0.288959 0.28804 0.286277 0.283933
          0.281709 0.288828 0.287776 0.285663 0.282591 0.279249 0.2887 0.287463 0.284824 0.280443 0.274199 0.288757
          0.287433 0.284581 0.279636 0.271085 0.289073 0.287773 0.285079 0.280883 0.275424 0.289634 0.288374 0.285786
          0.281849 0.277226 0.290442 0.289297 0.286959 0.283448 0.279504 0.291419 0.290524 0.288803 0.286537 0.284623
          0.292291 0.29163 0.290434 0.289023 0.288004 0.292797 0.292266 0.291339 0.29031 0.289602 0.285162 0.283862
          0.281276 0.277629 0.273982 0.284922 0.283372 0.280058 0.274625 0.267578 0.284649 0.282742 0.278237 0.268906
          0.250067 0.284634 0.282597 0.277815 0.267853 0.245335 0.284944 0.282929 0.278505 0.270876 0.259482 0.285542
          0.283471 0.278829 0.270306 0.255438 0.286521 0.284534 0.279981 0.271293 0.25543 0.287874 0.28639 0.28332
          0.27871 0.273892 0.289122 0.288104 0.286187 0.283801 0.282063 0.289848 0.289074 0.287701 0.286162 0.285185
          0.281029 0.279324 0.275832 0.270586 0.264723 0.280667 0.278564 0.273771 0.264585 0.24784 0.280243 0.277533
          0.27019 0.248943 0.207377 0.280192 0.27734 0.270018 0.250942 0.211433 0.280509 0.277642 0.271033 0.258785
          0.23992 0.281113 0.277899 0.269877 0.251346 0.213383 0.282245 0.278845 0.269563 0.246766 0.208683 0.284118
          0.281764 0.27641 0.266976 0.253471 0.285865 0.284386 0.281471 0.277581 0.274603 0.286868 0.285812 0.283903
          0.281731 0.280468 0.276836 0.274822 0.270768 0.264805 0.258049 0.276371 0.273884 0.268409 0.258511 0.24152
          0.275866 0.272678 0.264552 0.243769 0.206755 0.275903 0.272588 0.264832 0.249932 0.227737 0.276334 0.272776
          0.264587 0.250038 0.229396 0.277025 0.272652 0.261184 0.237553 0.206587 0.278294 0.272801 0.252753 0.209526
          0.206756 0.280792 0.277467 0.268925 0.251073 0.246081 0.283058 0.281165 0.277265 0.271797 0.269647 0.284323
          0.283047 0.280708 0.278059 0.276876 0.272786 0.270491 0.266132 0.260432 0.254449 0.272167 0.26927 0.263516
          0.255712 0.246056 0.271582 0.267785 0.259525 0.247857 0.230162 0.272028 0.268285 0.26019 0.247083 0.227448
          0.272998 0.269046 0.25965 0.239639 0.206516 0.274221 0.269568 0.257434 0.233717 0.206222 0.275946 0.270209
          0.249402 0.207553 0.206734 0.278816 0.275419 0.266705 0.248621 0.246179 0.28131 0.279397 0.275483 0.270088
          0.268538 0.282678 0.281392 0.279053 0.276456 0.275412
        </DataArray>
        <DataArray type="Float32" Name="process rank" NumberOfComponents="1" format="ascii">
          0 0 0 0 0 0 0 0 0 0 0 0
          0 0 0 0 0 0 0 0 0 0 0 0
          0 0 0 0 0 0 0 0 0 0 0 0
          0 0 0 0 0 0 0 0 0 0 0 0
          0 0 0 0 0 0 0 0 0 0 0 0
          0 0 0 0 0 0 0 0 0 0 0 0
          0 0 0 0 0 0 0 0 0 0 0 0
          0 0 0 0 0 0 0 0 0 0 0 0
          0 0 0 0 0 0 0 0 0 0 0 0
          0 0 0 0 0 0 0 0 0 0 0 0
          0 0 0 0 0 0 0 0 0 0 0 0
          0 0 0 0 0 0 0 0 0 0 0 0
          0 0 0 0 0 0 0 0 0 0 0 0
          0 0 0 0 0 0 0 0 0 0 0 0
          0 0 0 0 0 0 0 0 0 0 0 0
          0 0 0 0 0 0 0 0 0 0 0 0
          0 0 0 0 0 0 0 0 0 0 0 0
          0 0 0 0 0 0 0 0 0 0 0 0
          0 0 0 0 0 0 0 0 0 0 0 0
          0 0 0 0 0 0 0 0 0 0 0 0
          0 0 0 0 0 0 0 0 0 0 0 0
          0 0 0 0 0 0 0 0 0 0 0 0
          0 0 0 0 0 0 0 0 0 0 0 0
          0 0 0 0 0 0 0 0 0 0 0 0
          0 0 0 0 0 0 0 0 0 0 0 0
          0 0 0 0 0 0 0 0 0 0 0 0
          0 0 0 0 0 0 0 0 0 0 0 0
          0 0 0 0 0 0 0 0 0 0 0 0
          0 0 0 0 0 0 0 0 0 0 0 0
          0 0 0 0 0 0 0 0 0 0 0 0
          0 0 0 0 0 0 0 0 0 0 0 0
          0 0 0 0 0 0 0 0 0 0 0 0
          0 0 0 0 0 0 0 0 0 0 0 0
          0 0 0 0 0 0 0 0 0 0 0 0
          0 0 0 0 0 0 0 0 0 0 0 0
          0 0 0 0 0 0 0 0 0 0 0 0
          0 0 0 0 0 0 0 0 0 0 0 0
          0 0 0 0 0 0
        </DataArray>
      </CellData>
      <Points>
        <DataArray type="Float32" Name="Coordinates" NumberOfComponents="3" format="ascii">
          -0.04 -0.04 -0.15 -0.032 -0.04 -0.15 -0.04 -0.032 -0.15 -0.032 -0.032 -0.15
          -0.04 -0.04 -0.142105 -0.032 -0.04 -0.142105 -0.04 -0.032 -0.142105 -0.032 -0.032 -0.142105
          -0.024 -0.04 -0.15 -0.024 -0.032 -0.15 -0.024 -0.04 -0.142105 -0.024 -0.032 -0.142105
          -0.016 -0.04 -0.15 -0.016 -0.032 -0.15 -0.016 -0.04 -0.142105 -0.016 -0.032 -0.142105
          -0.008 -0.04 -0.15 -0.008 -0.032 -0.15 -0.008 -0.04 -0.142105 -0.008 -0.032 -0.142105
          0 -0.04 -0.15 0 -0.032 -0.15 0 -0.04 -0.142105 0 -0.032 -0.142105
          -0.04 -0.024 -0.15 -0.032 -0.024 -0.15 -0.04 -0.024 -0.142105 -0.032 -0.024 -0.142105
          -0.024 -0.024 -0.15 -0.024 -0.024 -0.142105 -0.016 -0.024 -0.15 -0.016 -0.024 -0.142105
          -0.008 -0.024 -0.15 -0.008 -0.024 -0.142105 0 -0.024 -0.15 0 -0.024 -0.142105
          -0.04 -0.016 -0.15 -0.032 -0.016 -0.15 -0.04 -0.016 -0.142105 -0.032 -0.016 -0.142105
          -0.024 -0.016 -0.15 -0.024 -0.016 -0.142105 -0.016 -0.016 -0.15 -0.016 -0.016 -0.142105
          -0.008 -0.016 -0.15 -0.008 -0.016 -0.142105 0 -0.016 -0.15 0 -0.016 -0.142105
          -0.04 -0.008 -0.15 -0.032 -0.008 -0.15 -0.04 -0.008 -0.142105 -0.032 -0.008 -0.142105
          -0.024 -0.008 -0.15 -0.024 -0.008 -0.142105 -0.016 -0.008 -0.15 -0.016 -0.008 -0.142105
          -0.008 -0.008 -0.15 -0.008 -0.008 -0.142105 0 -0.008 -0.15 0 -0.008 -0.142105
          -0.04 0 -0.15 -0.032 0 -0.15 -0.04 0 -0.142105 -0.032 0 -0.142105
          -0.024 0 -0.15 -0.024 0 -0.142105 -0.016 0 -0.15 -0.016 0 -0.142105
          -0.008 0 -0.15 -0.008 0 -0.142105 0 0 -0.15 0 0 -0.142105
          -0.04 0.008 -0.15 -0.032 0.008 -0.15 -0.04 0.008 -0.142105 -0.032 0.008 -0.142105
          -0.024 0.008 -0.15 -0.024 0.008 -0.142105 -0.016 0.008 -0.15 -0.016 0.008 -0.142105
          -0.008 0.008 -0.15 -0.008 0.008 -0.142105 0 0.008 -0.15 0 0.008 -0.142105
          -0.04 0.016 -0.15 -0.032 0.016 -0.15 -0.04 0.016 -0.142105 -0.032 0.016 -0.142105
          -0.024 0.016 -0.15 -0.024 0.016 -0.142105 -0.016 0.016 -0.15 -0.016 0.016 -0.142105
          -0.008 0.016 -0.15 -0.008 0.016 -0.142105 0 0.016 -0.15 0 0.016 -0.142105
          -0.04 0.024 -0.15 -0.032 0.024 -0.15 -0.04 0.024 -0.142105 -0.032 0.024 -0.142105
          -0.024 0.024 -0.15 -0.024 0.024 -0.142105 -0.016 0.024 -0.15 -0.016 0.024 -0.142105
          -0.008 0.024 -0.15 -0.008 0.024 -0.142105 0 0.024 -0.15 0 0.024 -0.142105
          -0.04 0.032 -0.15 -0.032 0.032 -0.15 -0.04 0.032 -0.142105 -0.032 0.032 -0.142105
          -0.024 0.032 -0.15 -0.024 0.032 -0.142105 -0.016 0.032 -0.15 -0.016 0.032 -0.142105
          -0.008 0.032 -0.15 -0.008 0.032 -0.142105 0 0.032 -0.15 0 0.032 -0.142105
          -0.04 0.04 -0.15 -0.032 0.04 -0.15 -0.04 0.04 -0.142105 -0.032 0.04 -0.142105
          -0.024 0.04 -0.15 -0.024 0.04 -0.142105 -0.016 0.04 -0.15 -0.016 0.04 -0.142105
          -0.008 0.04 -0.15 -0.008 0.04 -0.142105 0 0.04 -0.15 0 0.04 -0.142105
          -0.04 -0.04 -0.134211 -0.032 -0.04 -0.134211 -0.04 -0.032 -0.134211 -0.032 -0.032 -0.134211
          -0.024 -0.04 -0.134211 -0.024 -0.032 -0.134211 -0.016 -0.04 -0.134211 -0.016 -0.032 -0.134211
          -0.008 -0.04 -0.134211 -0.008 -0.032 -0.134211 0 -0.04 -0.134211 0 -0.032 -0.134211
          -0.04 -0.024 -0.134211 -0.032 -0.024 -0.134211 -0.024 -0.024 -0.134211 -0.016 -0.024 -0.134211
          -0.008 -0.024 -0.134211 0 -0.024 -0.134211 -0.04 -0.016 -0.134211 -0.032 -0.016 -0.134211
          -0.024 -0.016 -0.134211 -0.016 -0.016 -0.134211 -0.008 -0.016 -0.134211 0 -0.016 -0.134211
          -0.04 -0.008 -0.134211 -0.032 -0.008 -0.134211 -0.024 -0.008 -0.134211 -0.016 -0.008 -0.134211
          -0.008 -0.008 -0.134211 0 -0.008 -0.134211 -0.04 0 -0.134211 -0.032 0 -0.134211
          -0.024 0 -0.134211 -0.016 0 -0.134211 -0.008 0 -0.134211 0 0 -0.134211
          -0.04 0.008 -0.134211 -0.032 0.008 -0.134211 -0.024 0.008 -0.134211 -0.016 0.008 -0.134211
          -0.008 0.008 -0.134211 0 0.008 -0.134211 -0.04 0.016 -0.134211 -0.032 0.016 -0.134211
          -0.024 0.016 -0.134211 -0.016 0.016 -0.134211 -0.008 0.016 -0.134211 0 0.016 -0.134211
          -0.04 0.024 -0.134211 -0.032 0.024 -0.134211 -0.024 0.024 -0.134211 -0.016 0.024 -0.134211
          -0.008 0.024 -0.134211 0 0.024 -0.134211 -0.04 0.032 -0.134211 -0.032 0.032 -0.134211
          -0.024 0.032 -0.134211 -0.016 0.032 -0.134211 -0.008 0.032 -0.134211 0 0.032 -0.134211
          -0.04 0.04 -0.134211 -0.032 0.04 -0.134211 -0.024 0.04 -0.134211 -0.016 0.04 -0.134211
          -0.008 0.04 -0.134211 0 0.04 -0.134211 -0.04 -0.04 -0.126316 -0.032 -0.04 -0.126316
          -0.04 -0.032 -0.126316 -0.032 -0.032 -0.126316 -0.024 -0.04 -0.126316 -0.024 -0.032 -0.126316
          -0.016 -0.04 -0.126316 -0.016 -0.032 -0.126316 -0.008 -0.04 -0.126316 -0.008 -0.032 -0.126316
          0 -0.04 -0.126316 0 -0.032 -0.126316 -0.04 -0.024 -0.126316 -0.032 -0.024 -0.126316
          -0.024 -0.024 -0.126316 -0.016 -0.024 -0.126316 -0.008 -0.024 -0.126316 0 -0.024 -0.126316
          -0.04 -0.016 -0.126316 -0.032 -0.016 -0.126316 -0.024 -0.016 -0.126316 -0.016 -0.016 -0.126316
          -0.008 -0.016 -0.126316 0 -0.016 -0.126316 -0.04 -0.008 -0.126316 -0.032 -0.008 -0.126316
          -0.024 -0.008 -0.126316 -0.016 -0.008 -0.126316 -0.008 -0.008 -0.126316 0 -0.008 -0.126316
          -0.04 0 -0.126316 -0.032 0 -0.126316 -0.024 0 -0.126316 -0.016 0 -0.126316
          -0.008 0 -0.126316 0 0 -0.126316 -0.04 0.008 -0.126316 -0.032 0.008 -0.126316
          -0.024 0.008 -0.126316 -0.016 0.008 -0.126316 -0.008 0.008 -0.126316 0 0.008 -0.126316
          -0.04 0.016 -0.126316 -0.032 0.016 -0.126316 -0.024 0.016 -0.126316 -0.016 0.016 -0.126316
          -0.008 0.016 -0.126316 0 0.016 -0.126316 -0.04 0.024 -0.126316 -0.032 0.024 -0.126316
          -0.024 0.024 -0.126316 -0.016 0.024 -0.126316 -0.008 0.024 -0.126316 0 0.024 -0.126316
          -0.04 0.032 -0.126316 -0.032 0.032 -0.126316 -0.024 0.032 -0.126316 -0.016 0.032 -0.126316
          -0.008 0.032 -0.126316 0 0.032 -0.126316 -0.04 0.04 -0.126316 -0.032 0.04 -0.126316
          -0.024 0.04 -0.126316 -0.016 0.04 -0.126316 -0.008 0.04 -0.126316 0 0.04 -0.126316
          -0.04 -0.04 -0.118421 -0.032 -0.04 -0.118421 -0.04 -0.032 -0.118421 -0.032 -0.032 -0.118421
          -0.024 -0.04 -0.118421 -0.024 -0.032 -0.118421 -0.016 -0.04 -0.118421 -0.016 -0.032 -0.118421
          -0.008 -0.04 -0.118421 -0.008 -0.032 -0.118421 0 -0.04 -0.118421 0 -0.032 -0.118421
          -0.04 -0.024 -0.118421 -0.032 -0.024 -0.118421 -0.024 -0.024 -0.118421 -0.016 -0.024 -0.118421
          -0.008 -0.024 -0.118421 0 -0.024 -0.118421 -0.04 -0.016 -0.118421 -0.032 -0.016 -0.118421
          -0.024 -0.016 -0.118421 -0.016 -0.016 -0.118421 -0.008 -0.016 -0.118421 0 -0.016 -0.118421
          -0.04 -0.008 -0.118421 -0.032 -0.008 -0.118421 -0.024 -0.008 -0.118421 -0.016 -0.008 -0.118421
          -0.008 -0.008 -0.118421 0 -0.008 -0.118421 -0.04 0 -0.118421 -0.032 0 -0.118421
          -0.024 0 -0.118421 -0.016 0 -0.118421 -0.008 0 -0.118421 0 0 -0.118421
          -0.04 0.008 -0.118421 -0.032 0.008 -0.118421 -0.024 0.008 -0.118421 -0.016 0.008 -0.118421
          -0.008 0.008 -0.118421 0 0.008 -0.118421 -0.04 0.016 -0.118421 -0.032 0.016 -0.118421
          -0.024 0.016 -0.118421 -0.016 0.016 -0.118421 -0.008 0.016 -0.118421 0 0.016 -0.118421
          -0.04 0.024 -0.118421 -0.032 0.024 -0.118421 -0.024 0.024 -0.118421 -0.016 0.024 -0.118421
          -0.008 0.024 -0.118421 0 0.024 -0.118421 -0.04 0.032 -0.118421 -0.032 0.032 -0.118421
          -0.024 0.032 -0.118421 -0.016 0.032 -0.118421 -0.008 0.032 -0.118421 0 0.032 -0.118421
          -0.04 0.04 -0.118421 -0.032 0.04 -0.118421 -0.024 0.04 -0.118421 -0.016 0.04 -0.118421
          -0.008 0.04 -0.118421 0 0.04 -0.118421 -0.04 -0.04 -0.110526 -0.032 -0.04 -0.110526
          -0.04 -0.032 -0.110526 -0.032 -0.032 -0.110526 -0.024 -0.04 -0.110526 -0.024 -0.032 -0.110526
          -0.016 -0.04 -0.110526 -0.016 -0.032 -0.110526 -0.008 -0.04 -0.110526 -0.008 -0.032 -0.110526
          0 -0.04 -0.110526 0 -0.032 -0.110526 -0.04 -0.024 -0.110526 -0.032 -0.024 -0.110526
          -0.024 -0.024 -0.110526 -0.016 -0.024 -0.110526 -0.008 -0.024 -0.110526 0 -0.024 -0.110526
          -0.04 -0.016 -0.110526 -0.032 -0.016 -0.110526 -0.024 -0.016 -0.110526 -0.016 -0.016 -0.110526
          -0.008 -0.016 -0.110526 0 -0.016 -0.110526 -0.04 -0.008 -0.110526 -0.032 -0.008 -0.110526
          -0.024 -0.008 -0.110526 -0.016 -0.008 -0.110526 -0.008 -0.008 -0.110526 0 -0.008 -0.110526
          -0.04 0 -0.110526 -0.032 0 -0.110526 -0.024 0 -0.110526 -0.016 0 -0.110526
          -0.008 0 -0.110526 0 0 -0.110526 -0.04 0.008 -0.110526 -0.032 0.008 -0.110526
          -0.024 0.008 -0.110526 -0.016 0.008 -0.110526 -0.008 0.008 -0.110526 0 0.008 -0.110526
          -0.04 0.016 -0.110526 -0.032 0.016 -0.110526 -0.024 0.016 -0.110526 -0.016 0.016 -0.110526
          -0.008 0.016 -0.110526 0 0.016 -0.110526 -0.04 0.024 -0.110526 -0.032 0.024 -0.110526
          -0.024 0.024 -0.110526 -0.016 0.024 -0.110526 -0.008 0.024 -0.110526 0 0.024 -0.110526
          -0.04 0.032 -0.110526 -0.032 0.032 -0.110526 -0.024 0.032 -0.110526 -0.016 0.032 -0.110526
          -0.008 0.032 -0.110526 0 0.032 -0.110526 -0.04 0.04 -0.110526 -0.032 0.04 -0.110526
          -0.024 0.04 -0.110526 -0.016 0.04 -0.110526 -0.008 0.04 -0.110526 0 0.04 -0.110526
          -0.04 -0.04 -0.102632 -0.032 -0.04 -0.102632 -0.04 -0.032 -0.102632 -0.032 -0.032 -0.102632
          -0.024 -0.04 -0.102632 -0.024 -0.032 -0.102632 -0.016 -0.04 -0.102632 -0.016 -0.032 -0.102632
          -0.008 -0.04 -0.102632 -0.008 -0.032 -0.102632 0 -0.04 -0.102632 0 -0.032 -0.102632
          -0.04 -0.024 -0.102632 -0.032 -0.024 -0.102632 -0.024 -0.024 -0.102632 -0.016 -0.024 -0.102632
          -0.008 -0.024 -0.102632 0 -0.024 -0.102632 -0.04 -0.016 -0.102632 -0.032 -0.016 -0.102632
          -0.024 -0.016 -0.102632 -0.016 -0.016 -0.102632 -0.008 -0.016 -0.102632 0 -0.016 -0.102632
          -0.04 -0.008 -0.102632 -0.032 -0.008 -0.102632 -0.024 -0.008 -0.102632 -0.016 -0.008 -0.102632
          -0.008 -0.008 -0.102632 0 -0.008 -0.102632 -0.04 0 -0.102632 -0.032 0 -0.102632
          -0.024 0 -0.102632 -0.016 0 -0.102632 -0.008 0 -0.102632 0 0 -0.102632
          -0.04 0.008 -0.102632 -0.032 0.008 -0.102632 -0.024 0.008 -0.102632 -0.016 0.008 -0.102632
          -0.008 0.008 -0.102632 0 0.008 -0.102632 -0.04 0.016 -0.102632 -0.032 0.016 -0.102632
          -0.024 0.016 -0.102632 -0.016 0.016 -0.102632 -0.008 0.016 -0.102632 0 0.016 -0.102632
          -0.04 0.024 -0.102632 -0.032 0.024 -0.102632 -0.024 0.024 -0.102632 -0.016 0.024 -0.102632
          -0.008 0.024 -0.102632 0 0.024 -0.102632 -0.04 0.032 -0.102632 -0.032 0.032 -0.102632
          -0.024 0.032 -0.102632 -0.016 0.032 -0.102632 -0.008 0.032 -0.102632 0 0.032 -0.102632
          -0.04 0.04 -0.102632 -0.032 0.04 -0.102632 -0.024 0.04 -0.102632 -0.016 0.04 -0.102632
          -0.008 0.04 -0.102632 0 0.04 -0.102632 -0.04 -0.04 -0.0947368 -0.032 -0.04 -0.0947368
          -0.04 -0.032 -0.0947368 -0.032 -0.032 -0.0947368 -0.024 -0.04 -0.0947368 -0.024 -0.032 -0.0947368
          -0.016 -0.04 -0.0947368 -0.016 -0.032 -0.0947368 -0.008 -0.04 -0.0947368 -0.008 -0.032 -0.0947368
          0 -0.04 -0.0947368 0 -0.032 -0.0947368 -0.04 -0.024 -0.0947368 -0.032 -0.024 -0.0947368
          -0.024 -0.024 -0.0947368 -0.016 -0.024 -0.0947368 -0.008 -0.024 -0.0947368 0 -0.024 -0.0947368
          -0.04 -0.016 -0.0947368 -0.032 -0.016 -0.0947368 -0.024 -0.016 -0.0947368 -0.016 -0.016 -0.0947368
          -0.008 -0.016 -0.0947368 0 -0.016 -0.0947368 -0.04 -0.008 -0.0947368 -0.032 -0.008 -0.0947368
          -0.024 -0.008 -0.0947368 -0.016 -0.008 -0.0947368 -0.008 -0.008 -0.0947368 0 -0.008 -0.0947368
          -0.04 0 -0.0947368 -0.032 0 -0.0947368 -0.024 0 -0.0947368 -0.016 0 -0.0947368
          -0.008 0 -0.0947368 0 0 -0.0947368 -0.04 0.008 -0.0947368 -0.032 0.008 -0.0947368
          -0.024 0.008 -0.0947368 -0.016 0.008 -0.0947368 -0.008 0.008 -0.0947368 0 0.008 -0.0947368
          -0.04 0.016 -0.0947368 -0.032 0.016 -0.0947368 -0.024 0.016 -0.0947368 -0.016 0.016 -0.0947368
          -0.008 0.016 -0.0947368 0 0.016 -0.0947368 -0.04 0.024 -0.0947368 -0.032 0.024 -0.0947368
          -0.024 0.024 -0.0947368 -0.016 0.024 -0.0947368 -0.008 0.024 -0.0947368 0 0.024 -0.0947368
          -0.04 0.032 -0.0947368 -0.032 0.032 -0.0947368 -0.024 0.032 -0.0947368 -0.016 0.032 -0.0947368
          -0.008 0.032 -0.0947368 0 0.032 -0.0947368 -0.04 0.04 -0.0947368 -0.032 0.04 -0.0947368
          -0.024 0.04 -0.0947368 -0.016 0.04 -0.0947368 -0.008 0.04 -0.0947368 0 0.04 -0.0947368
          -0.04 -0.04 -0.0868421 -0.032 -0.04 -0.0868421 -0.04 -0.032 -0.0868421 -0.032 -0.032 -0.0868421
          -0.024 -0.04 -0.0868421 -0.024 -0.032 -0.0868421 -0.016 -0.04 -0.0868421 -0.016 -0.032 -0.0868421
          -0.008 -0.04 -0.0868421 -0.008 -0.032 -0.0868421 0 -0.04 -0.0868421 0 -0.032 -0.0868421
          -0.04 -0.024 -0.0868421 -0.032 -0.024 -0.0868421 -0.024 -0.024 -0.0868421 -0.016 -0.024 -0.0868421
          -0.008 -0.024 -0.0868421 0 -0.024 -0.0868421 -0.04 -0.016 -0.0868421 -0.032 -0.016 -0.0868421
          -0.024 -0.016 -0.0868421 -0.016 -0.016 -0.0868421 -0.008 -0.016 -0.0868421 0 -0.016 -0.0868421
          -0.04 -0.008 -0.0868421 -0.032 -0.008 -0.0868421 -0.024 -0.008 -0.0868421 -0.016 -0.008 -0.0868421
          -0.008 -0.008 -0.0868421 0 -0.008 -0.0868421 -0.04 0 -0.0868421 -0.032 0 -0.0868421
          -0.024 0 -0.0868421 -0.016 0 -0.0868421 -0.008 0 -0.0868421 0 0 -0.0868421
          -0.04 0.008 -0.0868421 -0.032 0.008 -0.0868421 -0.024 0.008 -0.0868421 -0.016 0.008 -0.0868421
          -0.008 0.008 -0.0868421 0 0.008 -0.0868421 -0.04 0.016 -0.0868421 -0.032 0.016 -0.0868421
          -0.024 0.016 -0.0868421 -0.016 0.016 -0.0868421 -0.008 0.016 -0.0868421 0 0.016 -0.0868421
          -0.04 0.024 -0.0868421 -0.032 0.024 -0.0868421 -0.024 0.024 -0.0868421 -0.016 0.024 -0.0868421
          -0.008 0.024 -0.0868421 0 0.024 -0.0868421 -0.04 0.032 -0.0868421 -0.032 0.032 -0.0868421
          -0.024 0.032 -0.0868421 -0.016 0.032 -0.0868421 -0.008 0.032 -0.0868421 0 0.032 -0.0868421
          -0.04 0.04 -0.0868421 -0.032 0.04 -0.0868421 -0.024 0.04 -0.0868421 -0.016 0.04 -0.0868421
          -0.008 0.04 -0.0868421 0 0.04 -0.0868421 -0.04 -0.04 -0.0789474 -0.032 -0.04 -0.0789474
          -0.04 -0.032 -0.0789474 -0.032 -0.032 -0.0789474 -0.024 -0.04 -0.0789474 -0.024 -0.032 -0.0789474
          -0.016 -0.04 -0.0789474 -0.016 -0.032 -0.0789474 -0.008 -0.04 -0.0789474 -0.008 -0.032 -0.0789474
          0 -0.04 -0.0789474 0 -0.032 -0.0789474 -0.04 -0.024 -0.0789474 -0.032 -0.024 -0.0789474
          -0.024 -0.024 -0.0789474 -0.016 -0.024 -0.0789474 -0.008 -0.024 -0.0789474 0 -0.024 -0.0789474
          -0.04 -0.016 -0.0789474 -0.032 -0.016 -0.0789474 -0.024 -0.016 -0.0789474 -0.016 -0.016 -0.0789474
          -0.008 -0.016 -0.0789474 0 -0.016 -0.0789474 -0.04 -0.008 -0.0789474 -0.032 -0.008 -0.0789474
          -0.024 -0.008 -0.0789474 -0.016 -0.008 -0.0789474 -0.008 -0.008 -0.0789474 0 -0.008 -0.0789474
          -0.04 0 -0.0789474 -0.032 0 -0.0789474 -0.024 0 -0.0789474 -0.016 0 -0.0789474
          -0.008 0 -0.0789474 0 0 -0.0789474 -0.04 0.008 -0.0789474 -0.032 0.008 -0.0789474
          -0.024 0.008 -0.0789474 -0.016 0.008 -0.0789474 -0.008 0.008 -0.0789474 0 0.008 -0.0789474
          -0.04 0.016 -0.0789474 -0.032 0.016 -0.0789474 -0.024 0.016 -0.0789474 -0.016 0.016 -0.0789474
          -0.008 0.016 -0.0789474 0 0.016 -0.0789474 -0.04 0.024 -0.0789474 -0.032 0.024 -0.0789474
          -0.024 0.024 -0.0789474 -0.016 0.024 -0.0789474 -0.008 0.024 -0.0789474 0 0.024 -0.0789474
          -0.04 0.032 -0.0789474 -0.032 0.032 -0.0789474 -0.024 0.032 -0.0789474 -0.016 0.032 -0.0789474
          -0.008 0.032 -0.0789474 0 0.032 -0.0789474 -0.04 0.04 -0.0789474 -0.032 0.04 -0.0789474
          -0.024 0.04 -0.0789474 -0.016 0.04 -0.0789474 -0.008 0.04 -0.0789474 0 0.04 -0.0789474
        </DataArray>
      </Points>
      <Cells>
        <DataArray type="Int32" Name="connectivity" NumberOfComponents="1" format="ascii">
          0 1 3 2 4 5 7 6 1 8 9 3
          5 10 11 7 8 12 13 9 10 14 15 11
          12 16 17 13 14 18 19 15 16 20 21 17
          18 22 23 19 2 3 25 24 6 7 27 26
          3 9 28 25 7 11 29 27 9 13 30 28
          11 15 31 29 13 17 32 30 15 19 33 31
          17 21 34 32 19 23 35 33 24 25 37 36
          26 27 39 38 25 28 40 37 27 29 41 39
          28 30 42 40 29 31 43 41 30 32 44 42
          31 33 45 43 32 34 46 44 33 35 47 45
          36 37 49 48 38 39 51 50 37 40 52 49
          39 41 53 51 40 42 54 52 41 43 55 53
          42 44 56 54 43 45 57 55 44 46 58 56
          45 47 59 57 48 49 61 60 50 51 63 62
          49 52 64 61 51 53 65 63 52 54 66 64
          53 55 67 65 54 56 68 66 55 57 69 67
          56 58 70 68 57 59 71 69 60 61 73 72
          62 63 75 74 61 64 76 73 63 65 77 75
          64 66 78 76 65 67 79 77 66 68 80 78
          67 69 81 79 68 70 82 80 69 71 83 81
          72 73 85 84 74 75 87 86 73 76 88 85
          75 77 89 87 76 78 90 88 77 79 91 89
          78 80 92 90 79 81 93 91 80 82 94 92
          81 83 95 93 84 85 97 96 86 87 99 98
          85 88 100 97 87 89 101 99 88 90 102 100
          89 91 103 101 90 92 104 102 91 93 105 103
          92 94 106 104 93 95 107 105 96 97 109 108
          98 99 111 110 97 100 112 109 99 101 113 111
          100 102 114 112 101 103 115 113 102 104 116 114
          103 105 117 115 104 106 118 116 105 107 119 117
          108 109 121 120 110 111 123 122 109 112 124 121
          111 113 125 123 112 114 126 124 113 115 127 125
          114 116 128 126 115 117 129 127 116 118 130 128
          117 119 131 129 4 5 7 6 132 133 135 134
          5 10 11 7 133 136 137 135 10 14 15 11
          136 138 139 137 14 18 19 15 138 140 141 139
          18 22 23 19 140 142 143 141 6 7 27 26
          134 135 145 144 7 11 29 27 135 137 146 145
          11 15 31 29 137 139 147 146 15 19 33 31
          139 141 148 147 19 23 35 33 141 143 149 148
          26 27 39 38 144 145 151 150 27 29 41 39
          145 146 152 151 29 31 43 41 146 147 153 152
          31 33 45 43 147 148 154 153 33 35 47 45
          148 149 155 154 38 39 51 50 150 151 157 156
          39 41 53 51 151 152 158 157 41 43 55 53
          152 153 159 158 43 45 57 55 153 154 160 159
          45 47 59 57 154 155 161 160 50 51 63 62
          156 157 163 162 51 53 65 63 157 158 164 163
          53 55 67 65 158 159 165 164 55 57 69 67
          159 160 166 165 57 59 71 69 160 161 167 166
          62 63 75 74 162 163 169 168 63 65 77 75
          163 164 170 169 65 67 79 77 164 165 171 170
          67 69 81 79 165 166 172 171 69 71 83 81
          166 167 173 172 74 75 87 86 168 169 175 174
          75 77 89 87 169 170 176 175 77 79 91 89
          170 171 177 176 79 81 93 91 171 172 178 177
          81 83 95 93 172 173 179 178 86 87 99 98
          174 175 181 180 87 89 101 99 175 176 182 181
          89 91 103 101 176 177 183 182 91 93 105 103
          177 178 184 183 93 95 107 105 178 179 185 184
          98 99 111 110 180 181 187 186 99 101 113 111
          181 182 188 187 101 103 115 113 182 183 189 188
          103 105 117 115 183 184 190 189 105 107 119 117
          184 185 191 190 110 111 123 122 186 187 193 192
          111 113 125 123 187 188 194 193 113 115 127 125
          188 189 195 194 115 117 129 127 189 190 196 195
          117 119 131 129 190 191 197 196 132 133 135 134
          198 199 201 200 133 136 137 135 199 202 203 201