<?xml version="1.0"?>
<VTKFile type="UnstructuredGrid" version="0.1" byte_order="LittleEndian">
  <UnstructuredGrid>
    <Piece NumberOfCells="500" NumberOfPoints="726">
      <CellData Scalars="p (Pa)">
        <DataArray type="Float32" Name="p (Pa)" NumberOfComponents="1" format="ascii">
          -86035.8 -101122 -134723 -72199.6 -53262.1 -130984 -130749 -110849 -72171.1 -55578.9 -305399 -288631
          -180118 -85889.4 -60503.2 -1.02907e+06 -1.04688e+06 -204544 -85270 -57283.7 -1.03721e+06 -300448 -153170 -66265.3
          -43361 -943275 -125845 -58024.9 -32970.1 -23229.2 -97808.5 -38341.2 -20499.8 -11586.7 -7454.94 -21342.6
          -9813.88 -3140.36 838.375 2809.85 -1676.37 2269.38 5473.1 7650.35 8769.58 4991.1 7079.88 9147.22
          10680.5 11489.6 -114674 -199745 -985636 -163067 -89062.2 -167569 -247325 -276398 -130510 -89453.6
          -375292 -1.06205e+06 -1.05937e+06 -168397 -94019.3 -1.02996e+06 -1.0381e+06 -221603 -100944 -69542 -1.02906e+06 -199908
          -89992.5 -56110.6 -42376.5 -150290 -67094.1 -39574.1 -26659.2 -20659.1 -39255.4 -23961.6 -14399.8 -8718.93
          -5907.03 -9678.48 -4956.83 -855.251 1966.82 3425.51 2246.36 4247.3 6374.59 7998.48 8868.48 6943.72
          8124.05 9559.47 10730.4 11373.6 -128571 -257243 -1.04293e+06 -234582 -127728 -187902 -350837 -1.10027e+06
          -240920 -143648 -367966 -439156 -357160 -259032 -190305 -1.02951e+06 -309997 -170112 -167173 -100215
          -203292 -113298 -76342.2 -64024.4 -48571.2 -60853.9 -44569.1 -32373.1 -25485.9 -20568.4 -19949.8 -15254.3
          -10372.8 -6900.91 -4844.19 -2671.84 -860.431 1425.08 3261.98 4306.73 5663.92 6511.06 7761.11 8852.26
          9477.36 9185.05 9702.89 10570.1 11368.5 11832.7 -121726 -242230 -328022 -189666 -142275 -208047
          -1.03983e+06 -1.08595e+06 -316138 -226580 -351837 -1.05794e+06 -497198 -1.13917e+06 -1.06903e+06 -1.0342e+06 -1.08764e+06 -288820
          -1.02917e+06 -201220 -165818 -144925 -93553.8 -116716 -62504.1 -47218.1 -40623.8 -31879.6 -28570.5 -21588.9
          -13150.7 -11083.1 -8082.33 -5772.78 -3896.03 1253.25 1972.58 3315.72 4552.01 5354.72 8216.49 8488.82
          9197.57 9917.01 10364.7 11169.4 11294.7 11771.8 12288.3 12610.6 -98650.5 -154787 -191612 -143625
          -116369 -143968 -295569 -348521 -198195 -144250 -312305 -1.04501e+06 -515492 -329853 -213125 -1.07743e+06
          -1.02942e+06 -1.03388e+06 -1.02205e+06 -158207 -188473 -151043 -128541 -112010 -55521.1 -47044.1 -38260.3 -31289.5
          -25860.1 -18689.7 -10191.1 -8338.1 -5953.74 -3807.17 -2055.33 3732.17 4104.8 5045.49 6020.65 6690.19
          10132.8 10144.9 10570.7 11081 11420.5 12800.2 12718.4 12967.9 13308.7 13538.1 -83478 -128465
          -193344 -115383 -88929.2 -121402 -259655 -1.03474e+06 -181258 -100043 -278591 -1.15345e+06 -1.04278e+06 -190421
          -100492 -1.02763e+06 -1.05695e+06 -236018 -140915 -72591.2 -148624 -130222 -70233.6 -50043.5 -35201.9 -35918.5
          -31388.5 -22409.6 -16525.2 -12466.2 -6192.54 -5207.6 -2877.31 -774.311 611.697 5903.29 6013.36 6796.4
          7663.52 8234.08 11676.4 11553.2 11845.5 12253.4 12531.9 14114 13929.8 14063.1 14310 14487.3
          -71171.9 -97919.8 -102237 -77459.1 -64207.8 -102709 -187220 -175134 -90144 -66167.4 -235394 -1.03211e+06
          -214441 -88388.8 -60572.5 -1.02765e+06 -618481 -119407 -61805.2 -43406.5 -125274 -92254.7 -47124.1 -30417.1
          -22910.1 -28429.6 -24187.1 -15851.7 -10280.4 -7325.93 -3246.29 -2492.83 -200.67 1870.92 3080.52 7518.46
          7551.13 8302 9143.17 9671.39 12829.2 12665.4 12917.8 13291.9 13546.2 15104.8 14886.9 14977.8
          15187.7 15342.7 -64328.5 -76851.6 -70106.8 -56258.8 -48304.4 -95750.8 -113610 -86835.4 -59716.3 -47942.6
          -226318 -232583 -104154 -57904.7 -42930.9 -1.02587e+06 -213423 -79720.4 -42846.8 -30952.8 -118722 -68502
          -37011.7 -22281.2 -16261.8 -26310.3 -20388.5 -12210.1 -6659.65 -3957.1 -2081.8 -955.641 1542.15 3708.12
          4898.18 8371.25 8520.74 9362 10249.9 10784.6 13543.2 13418 13699.2 14086.8 14343 15760
          15556 15653.3 15863.3 16016 -65255.9 -70750.6 -58168 -45928.2 -39528.8 -141096 -133191 -73296.5
          -48447.8 -38889.3 -1.02681e+06 -835686 -119474 -49637.8 -35014.5 -1.02712e+06 -1.01973e+06 -113820 -38995.1 -25493.5
          -137429 -105467 -38775.9 -19341.4 -12934.6 -30394.8 -22470.3 -11283.2 -4885.2 -2051.94 -2775.96 -774.615
          2339.09 4758.55 6013.84 8485.01 8911.99 9946.4 10930.5 11497.8 13847.6 13814.1 14164.6 14590.7
          14861.7 16103.5 15939.2 16067.8 16295.9 16455.9 -58488.6 -61470.4 -51329.9 -41011.3 -35484.4 -91594.5
          -85918.6 -59681.5 -42333.3 -34634 -242020 -160946 -72635.6 -41413.5 -30870.4 -1.03162e+06 -189605 -64027.1
          -32135.1 -22375 -167616 -65863.1 -31251.5 -16754.1 -11198.4 -38056.2 -20446.1 -9887.83 -3854.86 -1130.47
          -4406.55 -703.975 2763.67 5257.78 6528.51 8203.28 8992.02 10183.1 11227.8 11815.1 13875.5 13937.2
          14346.7 14802.5 15085.1 16202 16074.1 16230.3 16474.4 16641.2
        </DataArray>
        <DataArray type="Float32" Name="saturation" NumberOfComponents="1" format="ascii">
          0.246643 0.243876 0.23876 0.249516 0.254106 0.23927 0.239302 0.242261 0.249522 0.253496 0.224029 0.225004
          0.233457 0.246672 0.252249 0.206592 0.2064 0.231139 0.246793 0.253057 0.206504 0.224311 0.236422 0.250864
          0.256884 0.20759 0.239993 0.252869 0.26015 0.263605 0.244455 0.258413 0.264652 0.268353 0.270233 0.264325
          0.269146 0.272324 0.274379 0.275447 0.273065 0.275151 0.276946 0.278222 0.278897 0.27667 0.277883 0.279127
          0.28008 0.280593 0.241659 0.23157 0.207082 0.235277 0.24606 0.234778 0.22772 0.225759 0.239336 0.245985
          0.220573 0.206241 0.206269 0.234688 0.245136 0.206583 0.206494 0.229689 0.243907 0.25011 0.206592 0.231556
          0.245883 0.253359 0.257177 0.236769 0.250671 0.258029 0.26234 0.26459 0.258128 0.26333 0.267136 0.269646
          0.270968 0.269208 0.271427 0.273489 0.274986 0.275788 0.275138 0.276248 0.277468 0.27843 0.278957 0.277802
          0.278506 0.279381 0.280111 0.280519 0.239606 0.227023 0.206442 0.228665 0.239725 0.232684 0.221685 0.205852
          0.228188 0.237593 0.220896 0.218058 0.221388 0.2269 0.232452 0.206588 0.223773 0.234503 0.234822 0.244033
          0.23125 0.241874 0.248618 0.251393 0.255385 0.252162 0.256529 0.26035 0.262766 0.264625 0.264868 0.266775
          0.268894 0.270494 0.271482 0.272559 0.273486 0.274693 0.275697 0.276281 0.277056 0.277548 0.278288 0.278947
          0.27933 0.27915 0.279469 0.28001 0.280516 0.280813 0.240591 0.228091 0.222812 0.232514 0.237769 0.230831
          0.206476 0.205995 0.223438 0.229289 0.221637 0.206283 0.216154 0.205477 0.206168 0.206536 0.205978 0.224993
          0.206591 0.231437 0.234971 0.237432 0.245221 0.241344 0.251759 0.255766 0.257707 0.260516 0.261659 0.26423
          0.26767 0.268577 0.269941 0.271032 0.271948 0.274601 0.274989 0.275727 0.27642 0.276878 0.278561 0.278726
          0.279158 0.279602 0.279881 0.280389 0.280468 0.280774 0.281107 0.281316 0.244306 0.23623 0.232328 0.237596
          0.241397 0.237553 0.224593 0.221795 0.231712 0.237517 0.223647 0.20642 0.215614 0.222718 0.230394 0.206082
          0.206589 0.20654 0.206669 0.235831 0.232629 0.236678 0.23961 0.242077 0.253512 0.255816 0.258438 0.260717
          0.26263 0.265368 0.268976 0.269822 0.270945 0.271992 0.272872 0.275959 0.276167 0.276701 0.277262 0.277653
          0.279736 0.279744 0.280011 0.280333 0.280549 0.28144 0.281387 0.28155 0.281774 0.281926 0.247148 0.239621
          0.232164 0.241549 0.246085 0.240639 0.226858 0.206531 0.233342 0.244063 0.225621 0.205344 0.206444 0.232441
          0.243985 0.206608 0.206294 0.228556 0.237943 0.24943 0.236972 0.239376 0.249954 0.254977 0.259415 0.259183
          0.260683 0.263915 0.266247 0.267967 0.270831 0.271305 0.272456 0.273531 0.274259 0.277194 0.277258 0.277716
          0.27823 0.278572 0.280712 0.280633 0.280821 0.281084 0.281265 0.28231 0.282187 0.282276 0.282442 0.282561
          0.249744 0.244435 0.243684 0.248382 0.25135 0.243604 0.232751 0.233971 0.245855 0.250887 0.228603 0.206559
          0.230282 0.246188 0.252232 0.206608 0.212993 0.240936 0.251929 0.256871 0.240075 0.24546 0.255793 0.261016
          0.263725 0.261708 0.263246 0.266526 0.268936 0.270294 0.272271 0.27265 0.27383 0.274934 0.275596 0.278143
          0.278163 0.278613 0.279125 0.27945 0.281459 0.281352 0.281517 0.281763 0.281931 0.28298 0.282832 0.282894
          0.283037 0.283143 0.251321 0.24851 0.249983 0.25332 0.25546 0.244822 0.241825 0.246487 0.252444 0.255562
          0.229309 0.228819 0.243359 0.252899 0.257012 0.206627 0.230368 0.24791 0.257037 0.260832 0.241039 0.250347
          0.258833 0.263964 0.266355 0.262466 0.264696 0.268079 0.270609 0.271918 0.272858 0.273437 0.274757 0.275945
          0.276617 0.278655 0.278745 0.279259 0.27981 0.280145 0.28193 0.281847 0.282033 0.282292 0.282464 0.28343
          0.28329 0.283357 0.283502 0.283608 0.251101 0.249838 0.252833 0.256135 0.258043 0.23792 0.238967 0.249275
          0.25542 0.258242 0.206617 0.209044 0.240926 0.255089 0.259476 0.206614 0.206695 0.241792 0.258209 0.262764
          0.238399 0.24314 0.258277 0.265108 0.267764 0.261023 0.263892 0.268488 0.271462 0.272874 0.272507 0.27353
          0.275189 0.276537 0.277258 0.278724 0.278983 0.27962 0.280237 0.280598 0.282132 0.28211 0.282344 0.282631
          0.282815 0.283669 0.283554 0.283644 0.283803 0.283915 0.252752 0.252011 0.254625 0.257589 0.259323 0.245583
          0.246666 0.252453 0.25719 0.2596 0.228107 0.235516 0.24942 0.257467 0.26086 0.206565 0.23252 0.251393
          0.26043 0.263929 0.234773 0.250958 0.26073 0.266153 0.268525 0.258502 0.264673 0.269113 0.271968 0.273346
          0.271696 0.273567 0.275422 0.276822 0.277558 0.278553 0.279032 0.279768 0.280426 0.280801 0.282151 0.282192
          0.282466 0.282774 0.282967 0.283737 0.283648 0.283757 0.283928 0.284045
        </DataArray>
        <DataArray type="Float32" Name="process rank" NumberOfComponents="1" format="ascii">
          3 3 3 3 3 3 3 3 3 3 3 3
          3 3 3 3 3 3 3 3 3 3 3 3
          3 3 3 3 3 3 3 3 3 3 3 3
          3 3 3 3 3 3 3 3 3 3 3 3
          3 3 3 3 3 3 3 3 3 3 3 3
          3 3 3 3 3 3 3 3 3 3 3 3
          3 3 3 3 3 3 3 3 3 3 3 3
          3 3 3 3 3 3 3 3 3 3 3 3
          3 3 3 3 3 3 3 3 3 3 3 3
          3 3 3 3 3 3 3 3 3 3 3 3
          3 3 3 3 3 3 3 3 3 3 3 3
          3 3 3 3 3 3 3 3 3 3 3 3
          3 3 3 3 3 3 3 3 3 3 3 3
          3 3 3 3 3 3 3 3 3 3 3 3
          3 3 3 3 3 3 3 3 3 3 3 3
          3 3 3 3 3 3 3 3 3 3 3 3
          3 3 3 3 3 3 3 3 3 3 3 3
          3 3 3 3 3 3 3 3 3 3 3 3
          3 3 3 3 3 3 3 3 3 3 3 3
          3 3 3 3 3 3 3 3 3 3 3 3
          3 3 3 3 3 3 3 3 3 3 3 3
          3 3 3 3 3 3 3 3 3 3 3 3
          3 3 3 3 3 3 3 3 3 3 3 3
          3 3 3 3 3 3 3 3 3 3 3 3
          3 3 3 3 3 3 3 3 3 3 3 3
          3 3 3 3 3 3 3 3 3 3 3 3
          3 3 3 3 3 3 3 3 3 3 3 3
          3 3 3 3 3 3 3 3 3 3 3 3
          3 3 3 3 3 3 3 3 3 3 3 3
          3 3 3 3 3 3 3 3 3 3 3 3
          3 3 3 3 3 3 3 3 3 3 3 3
          3 3 3 3 3 3 3 3 3 3 3 3
          3 3 3 3 3 3 3 3 3 3 3 3
          3 3 3 3 3 3 3 3 3 3 3 3
          3 3 3 3 3 3 3 3 3 3 3 3
          3 3 3 3 3 3 3 3 3 3 3 3
          3 3 3 3 3 3 3 3 3 3 3 3
          3 3 3 3 3 3 3 3 3 3 3 3
          3 3 3 3 3 3 3 3 3 3 3 3
          3 3 3 3 3 3 3 3 3 3 3 3
          3 3 3 3 3 3 3 3 3 3 3 3
          3 3 3 3 3 3 3 3
        </DataArray>
      </CellData>
      <Points>
        <DataArray type="Float32" Name="Coordinates" NumberOfComponents="3" format="ascii">
          0 -0.04 -0.0789474 0.008 -0.04 -0.0789474 0 -0.032 -0.0789474 0.008 -0.032 -0.0789474
          0 -0.04 -0.0710526 0.008 -0.04 -0.0710526 0 -0.032 -0.0710526 0.008 -0.032 -0.0710526
          0.016 -0.04 -0.0789474 0.016 -0.032 -0.0789474 0.016 -0.04 -0.0710526 0.016 -0.032 -0.0710526
          0.024 -0.04 -0.0789474 0.024 -0.032 -0.0789474 0.024 -0.04 -0.0710526 0.024 -0.032 -0.0710526
          0.032 -0.04 -0.0789474 0.032 -0.032 -0.0789474 0.032 -0.04 -0.0710526 0.032 -0.032 -0.0710526
          0.04 -0.04 -0.0789474 0.04 -0.032 -0.0789474 0.04 -0.04 -0.0710526 0.04 -0.032 -0.0710526
          0 -0.024 -0.0789474 0.008 -0.024 -0.0789474 0 -0.024 -0.0710526 0.008 -0.024 -0.0710526
          0.016 -0.024 -0.0789474 0.016 -0.024 -0.0710526 0.024 -0.024 -0.0789474 0.024 -0.024 -0.0710526
          0.032 -0.024 -0.0789474 0.032 -0.024 -0.0710526 0.04 -0.024 -0.0789474 0.04 -0.024 -0.0710526
          0 -0.016 -0.0789474 0.008 -0.016 -0.0789474 0 -0.016 -0.0710526 0.008 -0.016 -0.0710526
          0.016 -0.016 -0.0789474 0.016 -0.016 -0.0710526 0.024 -0.016 -0.0789474 0.024 -0.016 -0.0710526
          0.032 -0.016 -0.0789474 0.032 -0.016 -0.0710526 0.04 -0.016 -0.0789474 0.04 -0.016 -0.0710526
          0 -0.008 -0.0789474 0.008 -0.008 -0.0789474 0 -0.008 -0.0710526 0.008 -0.008 -0.0710526
          0.016 -0.008 -0.0789474 0.016 -0.008 -0.0710526 0.024 -0.008 -0.0789474 0.024 -0.008 -0.0710526
          0.032 -0.008 -0.0789474 0.032 -0.008 -0.0710526 0.04 -0.008 -0.0789474 0.04 -0.008 -0.0710526
          0 0 -0.0789474 0.008 0 -0.0789474 0 0 -0.0710526 0.008 0 -0.0710526
          0.016 0 -0.0789474 0.016 0 -0.0710526 0.024 0 -0.0789474 0.024 0 -0.0710526
          0.032 0 -0.0789474 0.032 0 -0.0710526 0.04 0 -0.0789474 0.04 0 -0.0710526
          0 0.008 -0.0789474 0.008 0.008 -0.0789474 0 0.008 -0.0710526 0.008 0.008 -0.0710526
          0.016 0.008 -0.0789474 0.016 0.008 -0.0710526 0.024 0.008 -0.0789474 0.024 0.008 -0.0710526
          0.032 0.008 -0.0789474 0.032 0.008 -0.0710526 0.04 0.008 -0.0789474 0.04 0.008 -0.0710526
          0 0.016 -0.0789474 0.008 0.016 -0.0789474 0 0.016 -0.0710526 0.008 0.016 -0.0710526
          0.016 0.016 -0.0789474 0.016 0.016 -0.0710526 0.024 0.016 -0.0789474 0.024 0.016 -0.0710526
          0.032 0.016 -0.0789474 0.032 0.016 -0.0710526 0.04 0.016 -0.0789474 0.04 0.016 -0.0710526
          0 0.024 -0.0789474 0.008 0.024 -0.0789474 0 0.024 -0.0710526 0.008 0.024 -0.0710526
          0.016 0.024 -0.0789474 0.016 0.024 -0.0710526 0.024 0.024 -0.0789474 0.024 0.024 -0.0710526
          0.032 0.024 -0.0789474 0.032 0.024 -0.0710526 0.04 0.024 -0.0789474 0.04 0.024 -0.0710526
          0 0.032 -0.0789474 0.008 0.032 -0.0789474 0 0.032 -0.0710526 0.008 0.032 -0.0710526
          0.016 0.032 -0.0789474 0.016 0.032 -0.0710526 0.024 0.032 -0.0789474 0.024 0.032 -0.0710526
          0.032 0.032 -0.0789474 0.032 0.032 -0.0710526 0.04 0.032 -0.0789474 0.04 0.032 -0.0710526
          0 0.04 -0.0789474 0.008 0.04 -0.0789474 0 0.04 -0.0710526 0.008 0.04 -0.0710526
          0.016 0.04 -0.0789474 0.016 0.04 -0.0710526 0.024 0.04 -0.0789474 0.024 0.04 -0.0710526
          0.032 0.04 -0.0789474 0.032 0.04 -0.0710526 0.04 0.04 -0.0789474 0.04 0.04 -0.0710526
          0 -0.04 -0.0631579 0.008 -0.04 -0.0631579 0 -0.032 -0.0631579 0.008 -0.032 -0.0631579
          0.016 -0.04 -0.0631579 0.016 -0.032 -0.0631579 0.024 -0.04 -0.0631579 0.024 -0.032 -0.0631579
          0.032 -0.04 -0.0631579 0.032 -0.032 -0.0631579 0.04 -0.04 -0.0631579 0.04 -0.032 -0.0631579
          0 -0.024 -0.0631579 0.008 -0.024 -0.0631579 0.016 -0.024 -0.0631579 0.024 -0.024 -0.0631579
          0.032 -0.024 -0.0631579 0.04 -0.024 -0.0631579 0 -0.016 -0.0631579 0.008 -0.016 -0.0631579
          0.016 -0.016 -0.0631579 0.024 -0.016 -0.0631579 0.032 -0.016 -0.0631579 0.04 -0.016 -0.0631579
          0 -0.008 -0.0631579 0.008 -0.008 -0.0631579 0.016 -0.008 -0.0631579 0.024 -0.008 -0.0631579
          0.032 -0.008 -0.0631579 0.04 -0.008 -0.0631579 0 0 -0.0631579 0.008 0 -0.0631579
          0.016 0 -0.0631579 0.024 0 -0.0631579 0.032 0 -0.0631579 0.04 0 -0.0631579
          0 0.008 -0.0631579 0.008 0.008 -0.0631579 0.016 0.008 -0.0631579 0.024 0.008 -0.0631579
          0.032 0.008 -0.0631579 0.04 0.008 -0.0631579 0 0.016 -0.0631579 0.008 0.016 -0.0631579
          0.016 0.016 -0.0631579 0.024 0.016 -0.0631579 0.032 0.016 -0.0631579 0.04 0.016 -0.0631579
          0 0.024 -0.0631579 0.008 0.024 -0.0631579 0.016 0.024 -0.0631579 0.024 0.024 -0.0631579
          0.032 0.024 -0.0631579 0.04 0.024 -0.0631579 0 0.032 -0.0631579 0.008 0.032 -0.0631579
          0.016 0.032 -0.0631579 0.024 0.032 -0.0631579 0.032 0.032 -0.0631579 0.04 0.032 -0.0631579
          0 0.04 -0.0631579 0.008 0.04 -0.0631579 0.016 0.04 -0.0631579 0.024 0.04 -0.0631579
          0.032 0.04 -0.0631579 0.04 0.04 -0.0631579 0 -0.04 -0.0552632 0.008 -0.04 -0.0552632
          0 -0.032 -0.0552632 0.008 -0.032 -0.0552632 0.016 -0.04 -0.0552632 0.016 -0.032 -0.0552632
          0.024 -0.04 -0.0552632 0.024 -0.032 -0.0552632 0.032 -0.04 -0.0552632 0.032 -0.032 -0.0552632
          0.04 -0.04 -0.0552632 0.04 -0.032 -0.0552632 0 -0.024 -0.0552632 0.008 -0.024 -0.0552632
          0.016 -0.024 -0.0552632 0.024 -0.024 -0.0552632 0.032 -0.024 -0.0552632 0.04 -0.024 -0.0552632
          0 -0.016 -0.0552632 0.008 -0.016 -0.0552632 0.016 -0.016 -0.0552632 0.024 -0.016 -0.0552632
          0.032 -0.016 -0.0552632 0.04 -0.016 -0.0552632 0 -0.008 -0.0552632 0.008 -0.008 -0.0552632
          0.016 -0.008 -0.0552632 0.024 -0.008 -0.0552632 0.032 -0.008 -0.0552632 0.04 -0.008 -0.0552632
          0 0 -0.0552632 0.008 0 -0.0552632 0.016 0 -0.0552632 0.024 0 -0.0552632
          0.032 0 -0.0552632 0.04 0 -0.0552632 0 0.008 -0.0552632 0.008 0.008 -0.0552632
          0.016 0.008 -0.0552632 0.024 0.008 -0.0552632 0.032 0.008 -0.0552632 0.04 0.008 -0.0552632
          0 0.016 -0.0552632 0.008 0.016 -0.0552632 0.016 0.016 -0.0552632 0.024 0.016 -0.0552632
          0.032 0.016 -0.0552632 0.04 0.016 -0.0552632 0 0.024 -0.0552632 0.008 0.024 -0.0552632
          0.016 0.024 -0.0552632 0.024 0.024 -0.0552632 0.032 0.024 -0.0552632 0.04 0.024 -0.0552632
          0 0.032 -0.0552632 0.008 0.032 -0.0552632 0.016 0.032 -0.0552632 0.024 0.032 -0.0552632
          0.032 0.032 -0.0552632 0.04 0.032 -0.0552632 0 0.04 -0.0552632 0.008 0.04 -0.0552632
          0.016 0.04 -0.0552632 0.024 0.04 -0.0552632 0.032 0.04 -0.0552632 0.04 0.04 -0.0552632
          0 -0.04 -0.0473684 0.008 -0.04 -0.0473684 0 -0.032 -0.0473684 0.008 -0.032 -0.0473684
          0.016 -0.04 -0.0473684 0.016 -0.032 -0.0473684 0.024 -0.04 -0.0473684 0.024 -0.032 -0.0473684
          0.032 -0.04 -0.0473684 0.032 -0.032 -0.0473684 0.04 -0.04 -0.0473684 0.04 -0.032 -0.0473684
          0 -0.024 -0.0473684 0.008 -0.024 -0.0473684 0.016 -0.024 -0.0473684 0.024 -0.024 -0.0473684
          0.032 -0.024 -0.0473684 0.04 -0.024 -0.0473684 0 -0.016 -0.0473684 0.008 -0.016 -0.0473684
          0.016 -0.016 -0.0473684 0.024 -0.016 -0.0473684 0.032 -0.016 -0.0473684 0.04 -0.016 -0.0473684
          0 -0.008 -0.0473684 0.008 -0.008 -0.0473684 0.016 -0.008 -0.0473684 0.024 -0.008 -0.0473684
          0.032 -0.008 -0.0473684 0.04 -0.008 -0.0473684 0 0 -0.0473684 0.008 0 -0.0473684
          0.016 0 -0.0473684 0.024 0 -0.0473684 0.032 0 -0.0473684 0.04 0 -0.0473684
          0 0.008 -0.0473684 0.008 0.008 -0.0473684 0.016 0.008 -0.0473684 0.024 0.008 -0.0473684
          0.032 0.008 -0.0473684 0.04 0.008 -0.0473684 0 0.016 -0.0473684 0.008 0.016 -0.0473684
          0.016 0.016 -0.0473684 0.024 0.016 -0.0473684 0.032 0.016 -0.0473684 0.04 0.016 -0.0473684
          0 0.024 -0.0473684 0.008 0.024 -0.0473684 0.016 0.024 -0.0473684 0.024 0.024 -0.0473684
          0.032 0.024 -0.0473684 0.04 0.024 -0.0473684 0 0.032 -0.0473684 0.008 0.032 -0.0473684
          0.016 0.032 -0.0473684 0.024 0.032 -0.0473684 0.032 0.032 -0.0473684 0.04 0.032 -0.0473684
          0 0.04 -0.0473684 0.008 0.04 -0.0473684 0.016 0.04 -0.0473684 0.024 0.04 -0.0473684
          0.032 0.04 -0.0473684 0.04 0.04 -0.0473684 0 -0.04 -0.0394737 0.008 -0.04 -0.0394737
          0 -0.032 -0.0394737 0.008 -0.032 -0.0394737 0.016 -0.04 -0.0394737 0.016 -0.032 -0.0394737
          0.024 -0.04 -0.0394737 0.024 -0.032 -0.0394737 0.032 -0.04 -0.0394737 0.032 -0.032 -0.0394737
          0.04 -0.04 -0.0394737 0.04 -0.032 -0.0394737 0 -0.024 -0.0394737 0.008 -0.024 -0.0394737
          0.016 -0.024 -0.0394737 0.024 -0.024 -0.0394737 0.032 -0.024 -0.0394737 0.04 -0.024 -0.0394737
          0 -0.016 -0.0394737 0.008 -0.016 -0.0394737 0.016 -0.016 -0.0394737 0.024 -0.016 -0.0394737
          0.032 -0.016 -0.0394737 0.04 -0.016 -0.0394737 0 -0.008 -0.0394737 0.008 -0.008 -0.0394737
          0.016 -0.008 -0.0394737 0.024 -0.008 -0.0394737 0.032 -0.008 -0.0394737 0.04 -0.008 -0.0394737
          0 0 -0.0394737 0.008 0 -0.0394737 0.016 0 -0.0394737 0.024 0 -0.0394737
          0.032 0 -0.0394737 0.04 0 -0.0394737 0 0.008 -0.0394737 0.008 0.008 -0.0394737
          0.016 0.008 -0.0394737 0.024 0.008 -0.0394737 0.032 0.008 -0.0394737 0.04 0.008 -0.0394737
          0 0.016 -0.0394737 0.008 0.016 -0.0394737 0.016 0.016 -0.0394737 0.024 0.016 -0.0394737
          0.032 0.016 -0.0394737 0.04 0.016 -0.0394737 0 0.024 -0.0394737 0.008 0.024 -0.0394737
          0.016 0.024 -0.0394737 0.024 0.024 -0.0394737 0.032 0.024 -0.0394737 0.04 0.024 -0.0394737
          0 0.032 -0.0394737 0.008 0.032 -0.0394737 0.016 0.032 -0.0394737 0.024 0.032 -0.0394737
          0.032 0.032 -0.0394737 0.04 0.032 -0.0394737 0 0.04 -0.0394737 0.008 0.04 -0.0394737
          0.016 0.04 -0.0394737 0.024 0.04 -0.0394737 0.032 0.04 -0.0394737 0.04 0.04 -0.0394737
          0 -0.04 -0.0315789 0.008 -0.04 -0.0315789 0 -0.032 -0.0315789 0.008 -0.032 -0.0315789
          0.016 -0.04 -0.0315789 0.016 -0.032 -0.0315789 0.024 -0.04 -0.0315789 0.024 -0.032 -0.0315789
          0.032 -0.04 -0.0315789 0.032 -0.032 -0.0315789 0.04 -0.04 -0.0315789 0.04 -0.032 -0.0315789
          0 -0.024 -0.0315789 0.008 -0.024 -0.0315789 0.016 -0.024 -0.0315789 0.024 -0.024 -0.0315789
          0.032 -0.024 -0.0315789 0.04 -0.024 -0.0315789 0 -0.016 -0.0315789 0.008 -0.016 -0.0315789
          0.016 -0.016 -0.0315789 0.024 -0.016 -0.0315789 0.032 -0.016 -0.0315789 0.04 -0.016 -0.0315789
          0 -0.008 -0.0315789 0.008 -0.008 -0.0315789 0.016 -0.008 -0.0315789 0.024 -0.008 -0.0315789
          0.032 -0.008 -0.0315789 0.04 -0.008 -0.0315789 0 0 -0.0315789 0.008 0 -0.0315789
          0.016 0 -0.0315789 0.024 0 -0.0315789 0.032 0 -0.0315789 0.04 0 -0.0315789
          0 0.008 -0.0315789 0.008 0.008 -0.0315789 0.016 0.008 -0.0315789 0.024 0.008 -0.0315789
          0.032 0.008 -0.0315789 0.04 0.008 -0.0315789 0 0.016 -0.0315789 0.008 0.016 -0.0315789
          0.016 0.016 -0.0315789 0.024 0.016 -0.0315789 0.032 0.016 -0.0315789 0.04 0.016 -0.0315789
          0 0.024 -0.0315789 0.008 0.024 -0.0315789 0.016 0.024 -0.0315789 0.024 0.024 -0.0315789
          0.032 0.024 -0.0315789 0.04 0.024 -0.0315789 0 0.032 -0.0315789 0.008 0.032 -0.0315789
          0.016 0.032 -0.0315789 0.024 0.032 -0.0315789 0.032 0.032 -0.0315789 0.04 0.032 -0.0315789
          0 0.04 -0.0315789 0.008 0.04 -0.0315789 0.016 0.04 -0.0315789 0.024 0.04 -0.0315789
          0.032 0.04 -0.0315789 0.04 0.04 -0.0315789 0 -0.04 -0.0236842 0.008 -0.04 -0.0236842
          0 -0.032 -0.0236842 0.008 -0.032 -0.0236842 0.016 -0.04 -0.0236842 0.016 -0.032 -0.0236842
          0.024 -0.04 -0.0236842 0.024 -0.032 -0.0236842 0.032 -0.04 -0.0236842 0.032 -0.032 -0.0236842
          0.04 -0.04 -0.0236842 0.04 -0.032 -0.0236842 0 -0.024 -0.0236842 0.008 -0.024 -0.0236842
          0.016 -0.024 -0.0236842 0.024 -0.024 -0.0236842 0.032 -0.024 -0.0236842 0.04 -0.024 -0.0236842
          0 -0.016 -0.0236842 0.008 -0.016 -0.0236842 0.016 -0.016 -0.0236842 0.024 -0.016 -0.0236842
          0.032 -0.016 -0.0236842 0.04 -0.016 -0.0236842 0 -0.008 -0.0236842 0.008 -0.008 -0.0236842
          0.016 -0.008 -0.0236842 0.024 -0.008 -0.0236842 0.032 -0.008 -0.0236842 0.04 -0.008 -0.0236842
          0 0 -0.0236842 0.008 0 -0.0236842 0.016 0 -0.0236842 0.024 0 -0.0236842
          0.032 0 -0.0236842 0.04 0 -0.0236842 0 0.008 -0.0236842 0.008 0.008 -0.0236842
          0.016 0.008 -0.0236842 0.024 0.008 -0.0236842 0.032 0.008 -0.0236842 0.04 0.008 -0.0236842
          0 0.016 -0.0236842 0.008 0.016 -0.0236842 0.016 0.016 -0.0236842 0.024 0.016 -0.0236842
          0.032 0.016 -0.0236842 0.04 0.016 -0.0236842 0 0.024 -0.0236842 0.008 0.024 -0.0236842
          0.016 0.024 -0.0236842 0.024 0.024 -0.0236842 0.032 0.024 -0.0236842 0.04 0.024 -0.0236842
          0 0.032 -0.0236842 0.008 0.032 -0.0236842 0.016 0.032 -0.0236842 0.024 0.032 -0.0236842
          0.032 0.032 -0.0236842 0.04 0.032 -0.0236842 0 0.04 -0.0236842 0.008 0.04 -0.0236842
          0.016 0.04 -0.0236842 0.024 0.04 -0.0236842 0.032 0.04 -0.0236842 0.04 0.04 -0.0236842
          0 -0.04 -0.0157895 0.008 -0.04 -0.0157895 0 -0.032 -0.0157895 0.008 -0.032 -0.0157895
          0.016 -0.04 -0.0157895 0.016 -0.032 -0.0157895 0.024 -0.04 -0.0157895 0.024 -0.032 -0.0157895
          0.032 -0.04 -0.0157895 0.032 -0.032 -0.0157895 0.04 -0.04 -0.0157895 0.04 -0.032 -0.0157895
          0 -0.024 -0.0157895 0.008 -0.024 -0.0157895 0.016 -0.024 -0.0157895 0.024 -0.024 -0.0157895
          0.032 -0.024 -0.0157895 0.04 -0.024 -0.0157895 0 -0.016 -0.0157895 0.008 -0.016 -0.0157895
          0.016 -0.016 -0.0157895 0.024 -0.016 -0.0157895 0.032 -0.016 -0.0157895 0.04 -0.016 -0.0157895
          0 -0.008 -0.0157895 0.008 -0.008 -0.0157895 0.016 -0.008 -0.0157895 0.024 -0.008 -0.0157895
          0.032 -0.008 -0.0157895 0.04 -0.008 -0.0157895 0 0 -0.0157895 0.008 0 -0.0157895
          0.016 0 -0.0157895 0.024 0 -0.0157895 0.032 0 -0.0157895 0.04 0 -0.0157895
          0 0.008 -0.0157895 0.008 0.008 -0.0157895 0.016 0.008 -0.0157895 0.024 0.008 -0.0157895
          0.032 0.008 -0.0157895 0.04 0.008 -0.0157895 0 0.016 -0.0157895 0.008 0.016 -0.0157895
          0.016 0.016 -0.0157895 0.024 0.016 -0.0157895 0.032 0.016 -0.0157895 0.04 0.016 -0.0157895
          0 0.024 -0.0157895 0.008 0.024 -0.0157895 0.016 0.024 -0.0157895 0.024 0.024 -0.0157895
          0.032 0.024 -0.0157895 0.04 0.024 -0.0157895 0 0.032 -0.0157895 0.008 0.032 -0.0157895
          0.016 0.032 -0.0157895 0.024 0.032 -0.0157895 0.032 0.032 -0.0157895 0.04 0.032 -0.0157895
          0 0.04 -0.0157895 0.008 0.04 -0.0157895 0.016 0.04 -0.0157895 0.024 0.04 -0.0157895
          0.032 0.04 -0.0157895 0.04 0.04 -0.0157895 0 -0.04 -0.00789474 0.008 -0.04 -0.00789474
          0 -0.032 -0.00789474 0.008 -0.032 -0.00789474 0.016 -0.04 -0.00789474 0.016 -0.032 -0.00789474
          0.024 -0.04 -0.00789474 0.024 -0.032 -0.00789474 0.032 -0.04 -0.00789474 0.032 -0.032 -0.00789474
          0.04 -0.04 -0.00789474 0.04 -0.032 -0.00789474 0 -0.024 -0.00789474 0.008 -0.024 -0.00789474
          0.016 -0.024 -0.00789474 0.024 -0.024 -0.00789474 0.032 -0.024 -0.00789474 0.04 -0.024 -0.00789474
          0 -0.016 -0.00789474 0.008 -0.016 -0.00789474 0.016 -0.016 -0.00789474 0.024 -0.016 -0.00789474
          0.032 -0.016 -0.00789474 0.04 -0.016 -0.00789474 0 -0.008 -0.00789474 0.008 -0.008 -0.00789474
          0.016 -0.008 -0.00789474 0.024 -0.008 -0.00789474 0.032 -0.008 -0.00789474 0.04 -0.008 -0.00789474
          0 0 -0.00789474 0.008 0 -0.00789474 0.016 0 -0.00789474 0.024 0 -0.00789474
          0.032 0 -0.00789474 0.04 0 -0.00789474 0 0.008 -0.00789474 0.008 0.008 -0.00789474
          0.016 0.008 -0.00789474 0.024 0.008 -0.00789474 0.032 0.008 -0.00789474 0.04 0.008 -0.00789474
          0 0.016 -0.00789474 0.008 0.016 -0.00789474 0.016 0.016 -0.00789474 0.024 0.016 -0.00789474
          0.032 0.016 -0.00789474 0.04 0.016 -0.00789474 0 0.024 -0.00789474 0.008 0.024 -0.00789474
          0.016 0.024 -0.00789474 0.024 0.024 -0.00789474 0.032 0.024 -0.00789474 0.04 0.024 -0.00789474
          0 0.032 -0.00789474 0.008 0.032 -0.00789474 0.016 0.032 -0.00789474 0.024 0.032 -0.00789474
          0.032 0.032 -0.00789474 0.04 0.032 -0.00789474 0 0.04 -0.00789474 0.008 0.04 -0.00789474
          0.016 0.04 -0.00789474 0.024 0.04 -0.00789474 0.032 0.04 -0.00789474 0.04 0.04 -0.00789474
          0 -0.04 3.46945e-18 0.008 -0.04 3.46945e-18 0 -0.032 3.46945e-18 0.008 -0.032 3.46945e-18
          0.016 -0.04 3.46945e-18 0.016 -0.032 3.46945e-18 0.024 -0.04 3.46945e-18 0.024 -0.032 3.46945e-18
          0.032 -0.04 3.46945e-18 0.032 -0.032 3.46945e-18 0.04 -0.04 3.46945e-18 0.04 -0.032 3.46945e-18
          0 -0.024 3.46945e-18 0.008 -0.024 3.46945e-18 0.016 -0.024 3.46945e-18 0.024 -0.024 3.46945e-18
          0.032 -0.024 3.46945e-18 0.04 -0.024 3.46945e-18 0 -0.016 3.46945e-18 0.008 -0.016 3.46945e-18
          0.016 -0.016 3.46945e-18 0.024 -0.016 3.46945e-18 0.032 -0.016 3.46945e-18 0.04 -0.016 3.46945e-18
          0 -0.008 3.46945e-18 0.008 -0.008 3.46945e-18 0.016 -0.008 3.46945e-18 0.024 -0.008 3.46945e-18
          0.032 -0.008 3.46945e-18 0.04 -0.008 3.46945e-18 0 0 3.46945e-18 0.008 0 3.46945e-18
          0.016 0 3.46945e-18 0.024 0 3.46945e-18 0.032 0 3.46945e-18 0.04 0 3.46945e-18
          0 0.008 3.46945e-18 0.008 0.008 3.46945e-18 0.016 0.008 3.46945e-18 0.024 0.008 3.46945e-18
          0.032 0.008 3.46945e-18 0.04 0.008 3.46945e-18 0 0.016 3.46945e-18 0.008 0.016 3.46945e-18
          0.016 0.016 3.46945e-18 0.024 0.016 3.46945e-18 0.032 0.016 3.46945e-18 0.04 0.016 3.46945e-18
          0 0.024 3.46945e-18 0.008 0.024 3.46945e-18 0.016 0.024 3.46945e-18 0.024 0.024 3.46945e-18
          0.032 0.024 3.46945e-18 0.04 0.024 3.46945e-18 0 0.032 3.46945e-18 0.008 0.032 3.46945e-18
          0.016 0.032 3.46945e-18 0.024 0.032 3.46945e-18 0.032 0.032 3.46945e-18 0.04 0.032 3.46945e-18
          0 0.04 3.46945e-18 0.008 0.04 3.46945e-18 0.016 0.04 3.46945e-18 0.024 0.04 3.46945e-18
          0.032 0.04 3.46945e-18 0.04 0.04 3.46945e-18
        </DataArray>
      </Points>
      <Cells>
        <DataArray type="Int32" Name="connectivity" NumberOfComponents="1" format="ascii">
          0 1 3 2 4 5 7 6 1 8 9 3
          5 10 11 7 8 12 13 9 10 14 15 11
          12 16 17 13 14 18 19 15 16 20 21 17
          18 22 23 19 2 3 25 24 6 7 27 26