<?xml version="1.0"?>
<VTKFile type="UnstructuredGrid" version="0.1" byte_order="LittleEndian">
  <UnstructuredGrid>
    <Piece NumberOfCells="3800" NumberOfPoints="4620">
      <CellData Scalars="p (Pa)">
        <DataArray type="Float32" Name="p (Pa)" NumberOfComponents="1" format="ascii">
          34554.5 34512.7 34503.4 34523.1 34564.8 34619.9 34678.6 34731.9 34772 34793.5 34533.2 34490.5
          34481.1 34501.1 34543.7 34599.9 34659.7 34714 34754.8 34776.7 34494.6 34450.4 34440.6 34461.3
          34505.4 34563.5 34625.3 34681.3 34723.4 34745.9 34446.4 34400.2 34389.8 34411.3 34457.1 34517.4
          34581.6 34639.7 34683.3 34706.7 34398.8 34350.4 34339.2 34361.2 34408.6 34470.9 34537.3 34597.2
          34642.2 34666.3 34363 34312.7 34300.6 34322.6 34370.7 34434.2 34501.7 34562.8 34608.7 34633.2
          34349.2 34297.8 34284.8 34306.1 34353.7 34416.9 34484.2 34545.2 34591 34615.5 34365.1 34313.6
          34299.9 34319.8 34365.6 34426.7 34492.1 34551.5 34596.1 34620 34414.1 34364 34349.9 34368
          34410.7 34468.2 34530.1 34586.4 34628.8 34651.5 34495.5 34448.2 34434.4 34450.3 34489.2 34542.1
          34599.2 34651.2 34690.5 34711.6 34605.1 34561.8 34548.9 34562.9 34597.8 34645.4 34696.9 34744.1
          34779.7 34798.9 34736.2 34697.8 34686.4 34699 34730 34772.2 34818.1 34860 34891.8 34908.9
          34880.6 34847.6 34838.2 34849.8 34877.4 34914.7 34955.1 34992.1 35020 35035.1 35029.9 35002.3
          34995.3 35006.3 35031 35064 35099.5 35131.9 35156.4 35169.5 35175.6 35153.1 35148.4 35159.2
          35181.6 35211 35242.4 35270.8 35292.2 35303.8 35309.8 35291.9 35289.4 35300.2 35320.9 35347.4
          35375.3 35400.5 35419.4 35429.5 35425.8 35411.7 35411.1 35422.1 35441.5 35465.7 35490.9 35513.5
          35530.4 35539.4 35517.9 35506.8 35507.7 35518.7 35537.2 35559.7 35583 35603.7 35619.1 35627.4
          35581.8 35572.6 35574.5 35585.7 35603.6 35625 35647 35666.4 35680.9 35688.6 35614.5 35606.3
          35608.7 35619.9 35637.5 35658.4 35679.8 35698.6 35712.6 35720 34358.7 34314.4 34306.4 34330.5
          34378.9 34441.7 34508.1 34568 34613 34637 34332.8 34287.5 34279.4 34304.1 34353.8 34418.1
          34486 34547.2 34593.2 34617.7 34285.7 34238.5 34230.1 34256 34307.9 34375 34445.7 34509.3
          34556.9 34582.3 34226.4 34176.6 34167.8 34195.1 34249.7 34320.1 34394.2 34460.7 34510.4 34536.9
          34167 34114.5 34105 34133.5 34190.6 34264.1 34341.3 34410.5 34462.2 34489.7 34121.2 34066.2
          34055.8 34084.7 34143.3 34218.7 34297.9 34368.9 34421.8 34450.1 34101.4 34044.9 34033.4 34061.7
          34120 34195.4 34274.7 34345.8 34398.9 34427.2 34116.6 34060 34047.5 34074 34130.1 34203.1
          34280.3 34349.6 34401.4 34429.1 34170.5 34115.6 34102.4 34126.4 34178.5 34247 34319.8 34385.4
          34434.6 34460.9 34261.8 34210.1 34197 34218 34265.1 34327.7 34394.4 34454.8 34500.3 34524.6
          34384.7 34337.8 34325.4 34343.8 34385.6 34441.4 34501.3 34555.6 34596.6 34618.6 34531.1 34489.9
          34479.1 34495.4 34532.2 34581.4 34634.2 34682.3 34718.6 34738.1 34691.8 34656.7 34648.2 34662.9
          34695.4 34738.5 34784.7 34826.7 34858.5 34875.6 34857.1 34828.2 34822.1 34836 34864.9 34902.7
          34943.1 34979.7 35007.3 35022.1 35017.9 34994.7 34991.1 35004.5 35030.6 35064.1 35099.5 35131.5
          35155.5 35168.4 35165.7 35147.5 35146.3 35159.5 35183.4 35213.4 35244.8 35272.9 35294 35305.3
          35293.1 35279.1 35279.8 35293 35315.3 35342.6 35370.8 35396 35414.8 35424.8 35394.2 35383.2
          35385.5 35398.7 35419.8 35445.2 35471.1 35494.1 35511.2 35520.3 35464.1 35455.3 35458.6 35471.8
          35492.2 35516.3 35540.7 35562.2 35578.2 35586.7 35499.9 35492.1 35495.9 35509.2 35529.2 35552.6
          35576.3 35597.2 35612.6 35620.8 33999.2 33949.9 33944.7 33978.4 34041 34120.2 34202.8 34276.6
          34331.6 34360.9 33962.9 33912.2 33907.1 33942.2 34007 34088.8 34173.9 34249.8 34306.4 34336.5
          33896.5 33843.2 33838.2 33875.7 33944.6 34031.2 34120.8 34200.6 34259.8 34291.3 33811.9 33754.9
          33749.8 33790.4 33864.5 33957 34052.4 34137 34199.6 34232.9 33725.6 33664.5 33659 33702.5
          33781.7 33880 33981 34070.1 34136.1 34171 33656.6 33591.7 33585.4 33630.6 33713.1 33815.5
          33920.4 34012.9 34081.2 34117.4 33622.9 33555.4 33547.8 33592.7 33675.5 33778.6 33884.5 33977.9
          34046.8 34083.4 33636.7 33568.9 33559.6 33601.8 33681.5 33781.4 33884.5 33975.7 34043.2 34079
          33702.3 33636.6 33625.9 33663.7 33737.1 33830.2 33927 34013 34077 34111 33815.7 33754.6
          33743.3 33776 33841.4 33925.4 34013.3 34092 34150.7 34182.1 33968 33913.3 33902.6 33930.6
          33987.7 34061.6 34139.5 34209.6 34262.1 34290.2 34147.9 34100.7 34091.6 34116 34165.5 34229.6
          34297.5 34358.7 34404.8 34429.4 34343.3 34304.1 34297.5 34319.3 34362.3 34417.8 34476.4 34529.3
          34569.2 34590.5 34542.7 34511.3 34507.5 34527.6 34565.5 34613.6 34664.2 34709.8 34744.1 34762.5
          34735.4 34711 34710.1 34729.1 34762.9 34805.1 34849.1 34888.5 34918 34933.8 34911.7 34893.2
          34894.8 34913.3 34944 34981.4 35020.1 35054.5 35080.2 35093.9 35063.1 35049.4 35053 35071.1
          35099.5 35133.4 35167.9 35198.4 35221.1 35233.2 35182.7 35172.6 35177.8 35195.6 35222.3 35253.6
          35285.1 35312.8 35333.3 35344.2 35265.4 35257.6 35263.9 35281.5 35307.1 35336.7 35366.2 35392.1
          35411.2 35421.3 35307.6 35301 35307.8 35325.3 35350.4 35379.1 35407.7 35432.6 35451 35460.8
          33462.9 33406 33406.3 33456.3 33542.6 33648.7 33757.6 33853.8 33925 33962.7 33408.1 33349.1
          33349.9 33402.7 33493.3 33604.1 33717.3 33817.1 33890.8 33929.8 33306.7 33243.7 33245.5 33303.6
          33402 33521.5 33642.8 33749.2 33827.4 33868.8 33175.6 33106.7 33109.5 33174.5 33283.2 33414
          33545.7 33660.4 33744.5 33788.8 33038.8 32963 32966.5 33038.5 33157.8 33300 33442.2 33565.4
          33655.4 33702.7 32925.8 32843.3 32846.5 32923.4 33050.6 33201.5 33351.6 33481.3 33575.8 33625.4
          32865.5 32778.3 32779.7 32857.3 32986.7 33140.3 33293.2 33425.3 33521.5 33572.1 32877.4 32789.3
          32787.7 32860.6 32984.8 33133.6 33282.7 33412 33506.6 33556.4 32965.4 32880.7 32875.8 32940.2
          33053.1 33190.4 33329.4 33451 33540.4 33587.6 33119.7 33042.3 33035.3 33089.7 33188.3 33310.1
          33434.8 33544.9 33626.5 33669.7 33324.2 33256.6 33249.4 33295 33379.1 33484.2 33592.9 33689.8
          33761.9 33800.4 33561.5 33505 33499.6 33538.4 33609.6 33699.1 33792.3 33875.7 33938.1 33971.4
          33815.4 33770.2 33767.7 33801.7 33862.6 33938.7 34017.9 34089 34142.2 34170.7 34071.4 34036.7
          34037.5 34068.4 34121.3 34186.4 34253.9 34314.2 34359.4 34383.5 34316.4 34290.8 34294.9 34323.7
          34370.4 34426.9 34484.7 34536.2 34574.6 34595.2 34539 34520.7 34527.6 34555 34597 34646.6
          34696.9 34741.4 34774.5 34792 34729.1 34716.6 34725.6 34751.9 34790.3 34834.8 34879.4 34918.4
          34947.4 34962.7 34878.8 34870.4 34880.9 34906.3 34942.1 34982.9 35023.3 35058.5 35084.5 35098.2
          34981.9 34976.2 34987.6 35012.5 35046.6 35084.9 35122.6 35155.3 35179.3 35192 35034.5 35030.1
          35041.9 35066.5 35099.7 35136.8 35173.2 35204.7 35227.7 35239.9 32730.8 32663.9 32673.6 32749.3
          32871.9 33018.4 33166.1 33294.9 33389.4 33439.3 32644.8 32574.6 32586 32667.5 32798.1 32953.1
          33108.4 33243.3 33342 33394 32483.8 32407 32421.6 32514 32659.9 32831 33000.7 33147
          33253.4 33309.3 32271 32184.3 32202.9 32310.5 32477.2 32669.8 32858.5 33019.6 33136.1 33197.1
          32043.1 31943.7 31966.2 32090.4 32279.7 32495.3 32704 32880.7 33007.7 33073.9 31848.4 31735.7
          31760.3 31898 32105.7 32339.8 32564.5 32753.7 32889.2 32959.8 31738.6 31616 31638.9 31780.8
          31995.4 32236.8 32468.3 32663.2 32802.9 32875.6 31749.4 31625.1 31641.4 31774.2 31979.4 32213.1
          32439 32630.5 32768.4 32840.5 31880.9 31763.6 31771.8 31886 32068.9 32281.5 32490.4 32669.6
          32799.8 32868.2 32108.6 32004.5 32006.8 32100.2 32255.3 32439.7 32624.1 32784.7 32902.6 32965
          32401.2 32313.9 32314.2 32389.7 32518 32673.2 32831 32970 33073.2 33128 32731.1 32661.6
          32663.4 32726 32832 32961.1 33093.5 33211.3 33299.2 33346.1 33076.2 33023.7 33029.1 33083
          33171.8 33279.5 33390.1 33488.7 33562.5 33601.9 33418.4 33380.9 33390.3 33438.7 33514.7 33605.5
          33698.2 33780.6 33842.2 33875.1 33742.3 33716.8 33729.9 33774.5 33840.8 33918.6 33997.1 34066.5
          34118.1 34145.6 34033.9 34017.8 34033.7 34075.2 34134.3 34202 34269.6 34328.8 34372.6 34395.8
          34281.5 34272.1 34289.9 34329.1 34382.5 34442.7 34502 34553.5 34591.4 34611.4 34475.3 34470.6
          34489.5 34526.8 34576.2 34630.8 34684.2 34730.2 34763.9 34781.6 34608.5 34606.7 34626.1 34662.1
          34708.7 34759.7 34809.2 34851.7 34882.7 34899 34676.2 34675.7 34695.4 34730.7 34775.9 34825.2
          34872.8 34913.5 34943.2 34958.8 31778.7 31699.4 31725.2 31839.9 32015.5 32219.6 32421.6 32595.4
          32721.9 32788.2 31641.5 31557.2 31587.2 31713.3 31903.8 32123.1 32338.3 32522.4 32655.7 32725.4
          31380.4 31285.3 31323.5 31472.3 31692.3 31941.1 32181.5 32385 32531.2 32607.4 31025.6 30912.7
          30962.5 31144.5 31406.6 31696.3 31971.3 32200.8 32364.2 32448.9 30631.2 30492.8 30556 30778.2
          31089.3 31425.1 31737.9 31995.7 32177.7 32271.6 30279.7 30111 30185.7 30445.1 30800 31175.6
          31520.7 31802.4 32000.3 32102.2 30073.2 29880 29956.8 30232.6 30607.3 31001.4 31362.2 31656.4
          31863.3 31969.9 30089.4 29894.7 29955.4 30210.1 30566.2 30946.8 31299.3 31589.8 31795.6 31902.1
          30312 30135.2 30173.7 30383.7 30691.8 31031.5 31353.8 31624.4 31818.8 31920.2 30675.7 30526.9
          30549 30712 30962.8 31248.8 31527.9 31767.5 31942.5 32034.7 31117.7 31000.5 31015.6 31141.5
          31340.7 31573.9 31806.9 32011 32162.2 32242.6 31594.3 31508 31523.8 31624.7 31784 31972.6
          32163.8 32333.3 32460 32527.8 32077.7 32018.5 32038.7 32124.2 32254.8 32408.8 32565.2 32704.3
          32808.7 32864.7 32547.7 32510.1 32535.4 32611.1 32721.4 32849.2 32978.2 33092.5 33178 33223.8
          32986.3 32964.9 32994.1 33062.9 33158.3 33266.5 33374.3 33469 33539.4 33577 33377.5 33367.5
          33398.8 33462.1 33546.1 33639.5 33731.2 33810.9 33869.7 33901 33707 33704.5 33736.7 33795.3
          33870.5 33952.7 34032.3 34100.9 34151.2 34177.8 33963.5 33965.8 33998 34052.7 34121.4 34195.4
          34266.5 34327.2 34371.5 34394.8 34138.8 34143.8 34175.7 34227.7 34292 34360.7 34426.2 34481.9
          34522.3 34543.5 34227.7 34234 34265.6 34316.2 34378.3 34444.3 34507.1 34560.3 34598.8 34619
          30579.2 30486.3 30538.4 30710.3 30960.8 31244.3 31519.2 31752.7 31920.9 32008.6 30359.8 30259.2
          30320.8 30514.9 30792.8 31102.7 31399.9 31650 31829.2 31922.3 29932.3 29814 29895.3 30135.7
          30469.4 30832.1 31172.8 31455.2 31655.3 31758.8 29328.6 29176.8 29289.1 29602.5 30020.9 30460.6
          30862.7 31189.8 31418.7 31536.2 28620.1 28411.6 28566.5 28978.8 29504.6 30036.7 30509.9 30887.5
          31148.7 31282 27946.8 27656.6 27861 28380.7 29013.6 29632.2 30169.9 30593 30883.6 31031.4
          27530.8 27162.9 27397.6 27979.9 28670.6 29335.1 29908.1 30358 30667.3 30824.8 27583.1 27224.8
          27409 27934.2 28583.4 29222.9 29784.3 30231.8 30543.1 30702.8 28016.2 27717.5 27830.4 28235.2
          28772.9 29328.5 29834.5 30250.2 30545.5 30699 28647.2 28418.5 28483 28773.6 29186.8 29636.3
          30063.8 30427.5 30692.6 30832.3 29348.6 29186 29230.2 29440.2 29751 30102.7 30449.5 30753.6
          30980.1 31101 30058.3 29952.6 29995.2 30156.9 30395.7 30670.8 30947.6 31194.6 31381 31481.2
          30749.8 30688.9 30737.5 30872 31063.4 31282.8 31504.3 31702.5 31852.6 31933.5 31406.6 31377.7
          31432.2 31550.4 31710.1 31889.7 32069.2 32228.6 32348.7 32413.3 32011.1 32002.9 32060.4 32166.6
          32303.6 32454.2 32602.2 32732 32828.8 32880.5 32544.2 32548.5 32605.9 32702 32821.6 32950.4
          33074.9 33182.5 33261.9 33304.1 32989.2 33000.4 33055.8 33143 33249 33361.3 33468.4 33559.8
          33626.6 33661.9 33332.8 33347.7 33400.5 33480.4 33576 33676.2 33770.9 33851.1 33909.2 33939.7
          33566.3 33583 33633.4 33708.2 33796.7 33889 33975.7 34048.6 34101.2 34128.8 33684.3 33701.6
          33750.8 33822.8 33907.8 33996.2 34078.9 34148.3 34198.3 34224.4 29106.8 29000.9 29094.4 29347.9
          29700.7 30089.1 30458.4 30767.6 30988.1 31102.5 28758.1 28641.5 28755.6 29050.8 29451.9 29884.8
          30290.1 30625.6 30863.1 30985.7 28058.1 27913 28072.5 28459.6 28963.6 29488.2 29965.9 30353.2
          30623.7 30762.4 27015.5 26805.2 27045.2 27592.1 28263.7 28929.6 29513.7 29975.3 30292.6 30453.8
          25691.8 25340.5 25716.4 26512.4 27419.9 28268.7 28983.3 29533.3 29905.4 30093 24297.4 23676.8
          24268.1 25393.7 26570.7 27608.5 28451 29086.2 29511.7 29725.2 23346.5 22384.1 23204.3 24586.6
          25940.7 27094.2 28015.9 28707.9 29172 29405.5 23567.6 22721.6 23319.2 24511.6 25763.1 26869.8
          27777.6 28475 28951.2 29193.4 24545.7 23953.5 24270 25097.1 26069.4 26995.7 27800.7 28449
          28906.5 29143.6 25738.7 25353.5 25512.4 26042.1 26731 27440.2 28099.6 28661.8 29074 29292.1
          26903.5 26671.1 26772.2 27121.5 27603 28128.5 28644.5 29105.4 29454.5 29642.5 27984.3 27863.7
          27957.7 28213.9 28566.3 28961.2 29360.2 29724.8 30005.7 30158.7 28987.9 28943.7 29046.1 29256.4
          29532.8 29840.9 30152.5 30437 30656.5 30776.3 29918.9 29920.5 30029.1 30213 30442.2 30691.8
          30940 31163 31333.3 31425.8 30763.8 30788.7 30896.4 31060.1 31255.9 31463.8 31665.9 31843.6
          31977.1 32048.9 31500.2 31534.8 31636 31781.6 31951.2 32127.6 32295.7 32440.6 32547.5 32604.5
          32107.8 32144.9 32237.4 32366.6 32515 32667.5 32810.6 32931.9 33020.3 33067 32572.3 32609
          32693 32808.8 32940.9 33075.7 33201 33306.1 33381.9 33421.7 32885.4 32920.8 32998.5 33104.7
          33225.8 33348.8 33462.6 33557.5 33625.5 33661 33042.7 33077.3 33151.6 33253 33368.4 33485.6
          33593.7 33683.6 33747.9 33781.4 27346.2 27231.9 27387.8 27752.9 28238.9 28759.6 29245.3 29646.3
          29929.7 30076 26802.3 26675.6 26873.7 27313.5 27880.6 28472.5 29013.9 29454.4 29762.9 29921.2
          25668 25500.2 25798.4 26413.4 27161.5 27905.5 28561.5 29081.8 29440.1 29622.4 23857.6 23563
          24066.6 25021.7 26089.6 27082.1 27914.9 28554 28985.3 29202.4 21292.8 20612.7 21559.4 23144.3
          24720.1 26063.9 27128.4 27916.9 28438.6 28698.6 18122.1 16357.2 18322.4 20971 23232.3 24984.9
          26298.3 27243.1 27859.8 28165.4 15484.4 11501.3 15372.7 19195.4 22026.8 24077.3 25568.6 26633.1
          27329.1 27675.2 16478.1 13664.8 16037.5 19083.1 21647.5 23618 25105.6 26204.4 26942.1 27314.4
          19040.5 17597.4 18553.3 20353.2 22171.5 23738.1 25033.2 26066.5 26795.6 27173 21488.5 20763.3
          21143.5 22124.4 23272.5 24379.5 25399.6 26296.2 26966.1 27322.3 23494.8 23156.4 23369.3 23941.9
          24667.4 25428 26189.4 26910.5 27475.3 27783 25161.3 25054.5 25248.5 25646.7 26148.8 26694.9
          27262 27812.8 28253.9 28497.9 26630.6 26655.6 26863.1 27188.6 27577.7 27997.4 28429.6 28843.1
          29173.2 29356.4 27969.1 28053.3 28263.5 28549.1 28873.2 29213.1 29552.2 29865.4 30110.4 30245.3
          29169.5 29269.4 29466.2 29718.2 29995.6 30278.8 30551.8 30794.4 30979.2 31079.6 30201.3 30296.5
          30471 30690.5 30929.2 31168.6 31393.3 31586.8 31730.5 31807.4 31039.8 31123.7 31274.5 31464.4
          31670.7 31875.8 32064.9 32224.4 32340.4 32401.7 31671.9 31744.6 31875.3 32041.1 32222 32401.4
          32565.3 32701.6 32799.5 32850.8 32093 32157.7 32274.2 32423.3 32586.8 32749 32896.6 33018.4
          33105.4 33150.6 32303.2 32363.7 32473.1 32613.6 32768.3 32921.8 33061.4 33176.3 33258 33300.5
          25306.2 25194.2 25438.4 25946.3 26595.3 27273.2 27894.7 28401.4 28756.6 28939.1 24484.4 24366.1
          24691 25323.9 26099.8 26884.4 27586.6 28149.6 28540.1 28739.5 22694.2 22533.7 23066.1 24010
          25081.9 26102.1 26975.2 27654.4 28116.5 28350.1 19590.1 19207.5 20239.2 21859.6 23498.8 24927.5
          26077.2 26936.5 27507.5 27792.5 14530.6 13069.2 15534.9 18670.8 21335.7 23398.4 24937.8 26038.4
          26752.2 27104.5 6679.43 51.2742 7823.02 14397.4 18742.1 21652.8 23658.2 25036.4 25915.1 26345.9
          -2589.02 -32508.4 -2451.48 10112.2 16338.7 20020.7 22424.4 24053.2 25093.3 25605 2230.9 -12003.6
          1027.59 9791.95 15405.5 19026.5 21499 23257 24419.9 25002.2 9868.88 5502.5 8749.84 12843.9
          16339.3 19013.5 21127.4 22841.4 24058 24685 15188.3 13667.7 14579 16375.4 18236.3 19889.3
          21469 23000.8 24175.3 24797.7 18693.9 18213.4 18643.8 19543.2 20560.7 21570.1 22663.9 23874.7
          24866.8 25408.4 21250.9 21265.2 21658.9 22257.7 22922.7 23616.6 24397.2 25270.6 26009.7 26423.2
          23410.8 23648.2 24065.2 24564.8 25088.4 25629 26213.7 26829.6 27346.9 27638.7 25374.5 25663.1
          26066 26509.5 26958.2 27406.8 27861.8 28304.7 28664.1 28865.3 27119.8 27380.6 27735.5 28122.8
          28511.3 28889.9 29253.4 29583.6 29840.4 29981.6 28591.7 28802.9 29098.5 29427.6 29760.3 30080.4
          30376.6 30632.8 30824.7 30928 29761.4 29926.5 30167.6 30443.8 30727.1 30999.1 31245.8 31452.6
          31603.2 31683 30625.4 30755.9 30954.6 31188.7 31432.9 31668 31879.3 32053.5 32178.2 32243.5
          31192.2 31300.7 31471.2 31676.8 31894 32104.4 32292.9 32447 32556.3 32613.1 31472.4 31570.2
          31726.9 31918.1 32121.8 32319.8 32497 32641.5 32743.7 32796.6 23034.9 22942.2 23300 23975.2
          24807.5 25658.8 26428.4 27050.1 27483.3 27705.1 21851.7 21780.5 22278.9 23143.5 24157 25155.7
          26034.5 26731.5 27211.6 27455.8 19155.5 19102.1 19986.8 21343.3 22793 24125.5 25241 26096.6
          26673.9 26964.3 14053.9 13769 15722.4 18246.2 20586.1 22527.1 24042.2 25153.7 25884.4 26247.2
          4353.77 1499.7 7597.61 13216.1 17356.9 20328.7 22449.3 23927 24872.5 25336 -15375.7 -45072.7
          -9997.78 5267.47 13010.8 17585.8 20524.5 22472.4 23693.1 24286.6 -54738.2 -473402 -52775.1 -5566.95
          8110.15 14627.2 18438.1 20901.4 22443.1 23193.9 -29588.7 -142303 -35295.3 -8494.64 5256.43 12313.1
          16523.2 19408 21284.7 22211.9 -5511.54 -21066.3 -8959.03 121.151 7061.68 11667.3 15219.7 18297.3
          20475.1 21572.5 5940.5 2582.77 4666.65 7698.33 10451.8 12534.2 14986.3 18053.6 20381.2 21563.8
          11870.8 11301.9 12133.4 13406.3 14581.7 15565.5 16981.9 19364.1 21342.7 22382.8 15658.8 16145.6
          16948.9 17802.6 18551.3 19247.3 20230.1 21759.4 23115.8 23864 18847 19678 20521.4 21281.6
          21937.1 22560.1 23313.1 24274.1 25127.6 25611.3 21834.7 22605.4 23373.9 24062.9 24667.8 25233.3
          25827.6 26462.1 27000.8 27306 24460.6 25052.8 25684.1 26276.7 26813 27307.7 27782.5 28229.9
          28587.4 28786.1 26606.1 27030.5 27521.8 28010.1 28467.3 28888 29271.8 29606.6 29860.3 29997.8
          28254.1 28554.6 28931.2 29326.8 29709.9 30064.4 30380.2 30644 30836.6 30938.7 29436.7 29655.8
          29950.1 30274.5 30598 30900.6 31167.8 31386.3 31542.2 31623.7 30196.3 30367.4 30610.1 30887.4
          31170.4 31438 31673.9 31864.9 31999.8 32069.7 30567 30716.2 30934.1 31188.2 31451 31701
          31921.5 32099.6 32224.8 32289.4 20628.9 20571.3 21055 21903.5 22922.4 23949.7 24870.5 25610.4
          26124.3 26386.9 19030.4 19061.4 19761.1 20865 22117.4 23331.2 24389.2 25223.4 25796.1 26086.9
          15234.8 15511.2 16816.7 18585.5 20404.9 22046.7 23406.5 24442.9 25139.7 25489.6 7477.03 8239.49
          11213.3 14554.4 17551.9 19997.1 21883.4 23257.4 24157.1 24602.9 -9125.35 -8927.7 169.336 7640.57
          13131.5 17028.2 19765.4 21654.1 22856.6 23444.5 -47370.3 -72954 -25249.1 -4716.18 6443.52 12952.2
          16994.7 19626.3 21261.6 22052.9 -111353 -524286 -96049.9 -28115.2 -3289.63 7702.51 13545.2 17187.5
          19429.5 20508.6 -85775.3 -527653 -128284 -63736.5 -14089 2011.25 9505.55 14408.1 17497.2 18979.6
          -27744.6 -71859.7 -41164.6 -24668.2 -9250.03 -1205.43 5169.04 11549.6 15795.8 17796.1 -6855.33 -13347.3
          -9887.62 -5896.28 -2913.12 -2839.36 1019.36 9622.48 15073.9 17502.2 2064.07 1945.69 3409.8 4827.92
          5360.45 4678.56 5343.98 11823.7 16464.7 18615 7211.22 9243.93 10905.6 12039.8 12552.6 12645.7
          13475.3 16667.5 19412.4 20824.7 12016.7 14428.8 16136.6 17290 18023.2 18577.2 19441.9 21053.5
          22525.1 23338.6 16865.6 18724.5 20168.1 21235 22028.2 22699.5 23445.7 24369.5 25183.9 25644.9
          20994 22236.5 23332.2 24227.7 24956.2 25586.6 26192.8 26793.4 27285.6 27561 24187.3 24983.6
          25776.6 26487.2 27104.2 27645.7 28132.7 28562.1 28890.9 29070.1 26520 27034 27604.2 28157.7
          28664.4 29116.5 29512 29841.2 30081.8 30209.5 28129.8 28476.8 28898.9 29336.6 29755.2 30135.6
          30465.8 30733.5 30923.9 31023.3 29136 29391.5 29725.3 30089.1 30448.5 30780.6 31068.9 31300.2
          31462.7 31546.7 29619.3 29834.5 30127.5 30455.6 30785.7 31093.6 31361.5 31575.9 31725.6 31802.7
          18222.3 18190.8 18784.4 19787.4 20976.4 22169.2 23236.2 24093 24688 24992.1 16219.8 16367.6
          17254.4 18570 20035.5 21447 22674.9 23643 24307.7 24645.2 11283.7 12049 13766.1 15885.7
          18019.2 19933.6 21518.3 22727.3 23541 23949.9 315.778 3219.73 7141.66 11087.9 14603.3 17472.5
          19690.6 21311.6 22375.8 22903.8 -27256.9 -16178.4 -5735.65 2574.94 9091.41 13763.8 17053.3 19335
          20793.3 21507.3 -108856 -67571.6 -35152.1 -14945.8 -211.773 8224.9 13347.4 16687.1 18766.3 19770.9
          -196322 -231592 -132072 -72620.7 -18455.7 -317.737 8037.07 13150.9 16261.8 17738.2 -131847 -535457
          -534496 -502091 -61531.5 -13660.2 -145.991 8278.21 13273.7 15550.3 -51132 -111969 -108723 -86074.3
          -40162.7 -27613.4 -14801.4 1277.04 10017.1 13602.8 -23246 -31443.1 -30173.5 -27430.3 -29485.7 -56786.3
          -50394.8 -7483.56 7711.77 12795 -12482.9 -10054.6 -7637.58 -6776.59 -9526.27 -19799.1 -33471.5 -2871.34
          9838.75 14316.5 -6648.55 9.78502 3492.95 4944.4 4498.25 2190.22 705.326 9153.14 14988.5 17572.6
          1234.6 7595.52 10965 12724.5 13444.1 13620.2 14336.8 17242.3 19757.8 21058.8 9821.39 13950.4
          16549.3 18176.6 19204.3 19963.7 20857.9 22202.9 23395 24054.9 16551.8 18969.3 20784.8 22101.2
          23073.7 23862.7 24618.2 25405.7 26058.3 26421.6 21338.4 22731.6 23954 24954.4 25766.3 26447.8
          27050.5 27585.5 27996.7 28220.5 24611.1 25435 26260.8 27008.3 27659.1 28220.6 28702.8 29101.7
          29392.5 29546.7 26763.6 27280.9 27860.8 28430.9 28955.8 29420.6 29817.3 30136.1 30361.7 30479.2
          28066.5 28426.5 28867 29327.6 29769.8 30169.8 30512.4 30784.8 30975 31073 28680.9 28974.5
          29352.3 29761.3 30162.9 30531 30847.3 31098.2 31272.6 31362 15945.2 15884 16532.6 17644.7
          18972.1 20312.3 21518.3 22491.2 23168.8 23515.5 13662.7 13826 14821.6 16289.2 17924.2 19506.9
          20892.3 21990.1 22746.4 23131.2 7991.55 8944.11 10932.8 13310 15680.1 17815.2 19596.8 20966
          21891.8 22358.1 -4847.69 -1081.02 3607.91 8037.73 11888.1 15050.5 17532 19368.5 20583.1 21187.7
          -38831.4 -23847.7 -10423.9 -1046.27 5827.33 10845.8 14500.6 17100.1 18781.7 19608.6 -157286 -98582
          -42058.3 -17892.9 -4060.2 4441.77 10079 13960.4 16420 17611.6 -537745 -533564 -143712 -54836.9
          -21351.5 -5984.45 3139.42 9474.91 13376.6 15209.9 -204499 -534582 -547330 -143756 -52071.9 -26180.9
          -10576.7 2319.32 9447.33 12509.3 -78861 -142835 -139200 -90349.5 -71452.9 -85929.3 -58427.5 -11799
          4446.85 9918.91 -45293.1 -50875.4 -48643.3 -49494.3 -88798.9 -450738 -446713 -46235.8 -556.171 8612.17
          -35570 -25093.9 -19835 -20170.5 -31924.1 -81887.4 -307205 -32946 2780.6 10625.5 -32031.3 -12114.2
          -4825.4 -2764.92 -4870.85 -12469 -25893.2 246.64 11052.3 14939.7 -15578.5 -706.855 5425.52 8109.59
          8889.96 8600.69 8809.92 13823.1 17515.1 19266 423.838 8565.92 12852 15236.3 16601.6 17527.1
          18608 20433.5 21979.9 22806.8 11252.3 15501.4 18281 20120.2 21393.5 22382.6 23310.6 24285.5
          25080.2 25516.2 18231.4 20462.4 22219.3 23556.5 24588.3 25425.6 26150.8 26788.2 27272.9 27534.5
          22672.8 23892.5 25015.7 25976.1 26780 27454.9 28024.2 28489.5 28826 29003.4 25448.4 26165.8
          26918.5 27626.9 28259.6 28808.1 29269.3 29636.1 29893.9 30027.6 27072.8 27547.6 28099 28657
          29180.2 29645.8 30039.7 30350.2 30565.8 30676.5 27824.5 28200.4 28663.8 29152.2 29622.7 30047.8
          30409.4 30694 30890.8 30991.4 13833.1 13656.1 14273.6 15428.2 16853.9 18326.7 19673.2 20770.3
          21538.8 21933.1 11402.7 11443.1 12429.2 13966.2 15723.3 17458.3 19000 20233.8 21088.5 21524.4
          5416.34 6222.87 8262.64 10771.5 13311.1 15637.4 17607.9 19137.8 20178.1 20703.5 -7799.01 -4262.27
          570.36 5207.8 9271 12670.7 15390.9 17429.7 18786.5 19463.6 -40144.6 -25918.1 -13243.4 -3967.75
          2946.62 8185.74 12142.4 15009.8 16877.8 17798.2 -128291 -74893.3 -38837.9 -19187.4 -6938.59 1410.39
          7428.36 11681.8 14394.4 15709.7 -268537 -204783 -89665.2 -45274.4 -23102.8 -9622.99 178.787 7030.37
          11253.9 13240.1 -225333 -535830 -197113 -87791.4 -51378.6 -31944.1 -12760.8 165.527 7401.66 10565.7
          -109615 -166977 -119333 -100388 -97800 -106745 -42013.2 -10426 3146.01 8233.33 -76978.7 -72243.6
          -63579.3 -74142.3 -154776 -528808 -112819 -23298.2 398.555 7489.74 -75449.9 -43372.8 -32077.8 -33518.3
          -51595.9 -91627.4 -60576.1 -13574 3933.89 9809.12 -86977.5 -26880 -12909.2 -9521.38 -11418.5 -14832.7
          -9945.97 3018.01 10809 14111.9 -33702.7 -8845.3 485.502 4368.92 5853.31 6839.09 9227.78 13529.9
          16843.1 18489.9 -9532.55 3572.33 9693.2 12918 14799 16231.2 17826.3 19744.5 21304.8 22138.9
          5957.93 12404.8 16195 18568.4 20178.6 21430.7 22569.8 23653.7 24502.3 24961.8 15343 18510.4
          20801.4 22462.5 23710.3 24706.6 25550.4 26264.5 26794 27076.3 20980.4 22608.1 24013.1 25168.5
          26112 26890.9 27537.3 28056.1 28425.7 28619 24350.1 25259.1 26167.7 26997.5 27724.1 28345
          28861.1 29267 29550 29695.8 26265.2 26843.2 27490.9 28131.6 28723.2 29243.7 29680.2 30021.8
          30257.6 30378.3 27137 27584.2 28120.1 28674.8 29202.4 29674.5 30073.2 30385.2 30600 30709.6
          11821 11423.6 11897.3 13007.3 14488.3 16094.6 17607.4 18859.5 19742.6 20197 9295.66 9082.33
          9929.56 11445 13283.9 15176.3 16902.5 18303.2 19279.3 19778.4 2952.1 3489.61 5460.59 8028.31
          10718 13255.8 15450 17172 18347.9 18942.4 -12410.6 -8175.17 -2877.93 2071.79 6425.53 10136.5
          13151 15424.7 16939.2 17694.3 -66401.4 -34523.4 -17985.7 -7695.96 -264.05 5453.77 9824.31 12990.6
          15043.4 16050.7 -428524 -103197 -45254.5 -23551.7 -10678.2 -1542.15 5114.48 9747.13 12657 14056
          -537241 -223805 -91492.5 -50256.5 -28320.1 -12850.5 -1796.49 5472.77 9807.67 11821.7 -578476 -535425
          -187489 -101689 -66181.1 -35707.7 -12989.3 -160.229 6657.85 9621.23 -191375 -207941 -146870 -181383
          -185567 -108854 -33704.3 -7112.37 3834.73 8059.15 -134693 -99171.5 -85335.4 -136414 -532492 -510088
          -69772.1 -12230.5 3040.48 8142.92 -147002 -62255.4 -43498.7 -49043.5 -88518.6 -76665.2 -26355.8 -3621
          6612.22 10633.8 -110644 -36175.6 -18537.4 -14301.9 -15804.5 -11649.3 -1858.24 6727.23 12092.1 14550
          -44019.4 -13868.9 -2614.45 2222.13 4595.52 7257.33 10838.6 14511.1 17203.5 18565.2 -16904.5 355.578
          7751.6 11621.1 14008.2 15983 17950.7 19830.1 21261.4 22017.8 2290.42 10435.8 14916.9 17674.8
          19564.7 21052.3 22350.7 23477 24316.4 24762.4 13457.2 17287.3 19928.8 21810.5 23219.1 24340
          25270.1 26027 26572 26858.2 19911 21806.5 23389.6 24672.3 25712.7 26566.4 27266.7 27818.8
          28206 28406.5 23661.6 24689.7 25694.2 26601.1 27389.8 28060.1 28613.3 29044.6 29342.7 29495.6
          25755.8 26396.1 27102.1 27794.4 28430.1 28986.8 29451.5 29813.4 30062.1 30189 26700.3 27190
          27769.5 28365.1 28929 29431.8 29854.7 30184.6 30411.1 30526.4 9820.95 9056.34 9219.37 10150.5
          11630.2 13405 15161.6 16643.9 17694.7 18235.4 7333.62 6630.21 7126.09 8474.7 10343.8 12440
          14435.5 16080.7 17231.3 17819.1 1289.95 783.933 2309.16 4786.89 7610.04 10434 12950.9 14946.1
          16309.3 16997 -11820.4 -11762.7 -6995.84 -1789.01 2979.7 7170.42 10619.4 13219.2 14940.9 15794.9
          -43553 -42155.6 -24982.2 -12983.3 -4362.08 2287.39 7310.71 10882.7 13161.1 14267.8 -129789 -129665
          -60169.3 -32291.2 -16113 -4882.41 2829.43 7938.07 11049.2 12521.8 -206914 -255312 -118882 -70440.5
          -38276.2 -16175.8 -3234.22 4414.75 8763.25 10747.7 -266882 -542459 -269357 -193958 -109171 -38276.6
          -11761.2 473.517 6627.12 9278.19 -273493 -258540 -224253 -544773 -530783 -91885.3 -22903.2 -2977.88
          5331.78 8652.96 -255390 -128740 -103342 -170544 -506707 -104507 -25860.9 -3014.82 6014.89 9512.36
          -167142 -71080.6 -48129.7 -50946 -72874.4 -32550.8 -9330.02 2959.66 9329.41 12067.9 -83423.8 -36250.9
          -19658.4 -14004.4 -12054 -3896.11 4035.98 10004.6 13777.6 15568 -41970.9 -14384.3 -3140.5 2306.26
          5642.75 9255.63 12844.4 15904.5 18050.3 19135.2 -16181.8 41.476 7423.54 11539.2 14269.3 16557.1
          18614.4 20360.9 21622.4 22278.3 2441.07 10215.4 14676.2 17533.8 19563.3 21176.6 22532.5 23639.4
          24431.9 24845.4 13396.5 17101.6 19733.3 21658.6 23129.8 24308.8 25273 26035.6 26571.5 26849.1
          19784 21639.8 23221.6 24526 25597.8 26481.7 27202.9 27764.4 28153.3 28353 23520.8 24537.3
          25544.4 26464.1 27270.7 27958.7 28525.8 28965.6 29267.9 29422.2 25616.2 26254 26963.9 27665.3
          28312.8 28881.6 29356.4 29725.5 29978.6 30107.5 26563.3 27053.2 27637 28240.3 28813.7 29326.2
          29757.7 30094.1 30324.7 30442 7662.32 6351.75 5949.44 6452.95 7821.84 9884.16 12080.4 13957.7