<?xml version="1.0"?><VTKFile type="PolyData" version="0.1" byte_order="LittleEndian">
<PolyData>
<Piece NumberOfLines="51" NumberOfPoints="1483">
<PointData Scalars=" PointData">
<DataArray type="Float32" Name="time" NumberOfComponents="1" format="ascii" >
0 0.0454834 0.0910244 0.136623 0.18228 0.227996 0.273769 0.301261 0.347128 0.393054 0.420638 0.466658 0.512737 0.540413 0.586587 0.63282 0.660589 0.706918 0.753307 0.781169 0.827654 0.8742 0.902156 0.948798 0.995501 1.02355 1.07035 1.11721 1.14536 1.19232 1.23934 1.26758 1.3147 1.36188 1.39022 1.4375 1.48485 1.51328 1.56073 1.60824 1.63677 1.68438 1.73205 1.76068 1.80845 1.85629 1.88502 1.93296 1.98096 2.00979 2.0579 2.10607 2.135 2.18328 2.23162 2.26065 2.30909 2.3576 2.38674 2.43535 2.48403 2.51327 2.56206 2.61091 2.64025 2.68921 2.73824 2.76768 2.81682 2.86602 2.89557 2.94488 2.99426 3.02391 3.0734 3.12295 3.15272 3.20238 3.25211 3.28199 3.33183 3.38174 3.41172 3.46175 3.51184 3.54193 3.59213 3.64241 3.67261 3.723 3.77346 3.80377 3.85434 3.90498 3.93541 3.98617 4.037 4.06753 4.11848 4.1695 4.20014 4.25128 4.30249 4.33325 4.38457 4.43597 4.46685 4.51836 4.56996 4.60095 4.65266 4.70444 4.73555 4.78745 4.83943 4.87066 4.92276 4.97493 5.00628 5.05858 5.11095 5.14241 5.19491 5.24748 5.27906 5.33176 5.38454 5.41624 5.46914 5.52212 5.55394 5.60704 5.66023 5.69217 5.74548 5.79887 5.83094 5.88445 5.93805 5.97025 6.02397 6.07777 6.11009 6.16403 6.21804 6.25049 6.30463 6.35886 6.39144 6.44579 6.50023 6.53294 6.58751 6.64217 6.675 6.72979 6.78467 6.81763 6.87264 6.92773 6.96083 7 0.549643 0.675032 0.801207 0.928176 1.05595 1.18454 1.31396 1.44421 1.57531 1.70727 1.8401 1.97381 2.10841 2.24392 2.38034 2.49015 2.62826 2.76732 2.87927 3.02008 3.16188 3.27605 3.41967 3.56432 3.68079 3.82734 3.97496 4.09384 4.24343 4.39414 4.51553 4.6683 4.82223 4.94623 5.10231 5.25961 5.38634 5.54589 5.7067 5.83628 5.99944 6.16393 6.2965 6.46344 6.63178 6.76747 6.93838 7 0.66985 0.795239 0.921414 1.04838 1.17616 1.30475 1.43416 1.56442 1.69552 1.82748 1.9603 2.09401 2.22862 2.36412 2.50055 2.61036 2.74847 2.88753 2.99948 3.14029 3.28209 3.39625 3.53988 3.68453 3.801 3.94755 4.09517 4.21405 4.36364 4.51435 4.63574 4.7885 4.94244 5.06644 5.22252 5.37982 5.50655 5.66609 5.82691 5.95649 6.11965 6.28414 6.41671 6.58365 6.75199 6.88768 7 0.790461 0.915851 1.04203 1.16899 1.29677 1.42536 1.55478 1.68503 1.81613 1.94809 2.08092 2.21462 2.34923 2.48474 2.62116 2.73097 2.86908 3.00814 3.12009 3.2609 3.4027 3.51686 3.66049 3.80514 3.92161 4.06816 4.21578 4.33466 4.48425 4.63496 4.75635 4.90912 5.06305 5.18705 5.34313 5.50043 5.62716 5.7867 5.94752 6.0771 6.24026 6.40475 6.53732 6.70426 6.8726 7 0.911479 1.03687 1.16304 1.29001 1.41779 1.54638 1.67579 1.80605 1.93715 2.0691 2.20193 2.33564 2.47025 2.60575 2.74218 2.85199 2.9901 3.12916 3.2411 3.38192 3.52372 3.63788 3.7815 3.92616 4.04263 4.18918 4.3368 4.45568 4.60527 4.75598 4.87737 5.03013 5.18407 5.30807 5.46415 5.62145 5.74818 5.90772 6.06854 6.19812 6.36128 6.52577 6.65834 6.82528 6.99362 7 1.03291 1.1583 1.28447 1.41144 1.53922 1.66781 1.79722 1.92747 2.05857 2.19053 2.32336 2.45707 2.59167 2.72718 2.86361 2.97342 3.11153 3.25059 3.36253 3.50334 3.64515 3.75931 3.90293 4.04758 4.16406 4.3106 4.45822 4.5771 4.7267 4.87741 4.99879 5.15156 5.3055 5.4295 5.58558 5.74288 5.86961 6.02915 6.18996 6.31955 6.48271 6.6472 6.77976 6.94671 7 1.15475 1.28014 1.40631 1.53328 1.66105 1.78965 1.91906 2.04931 2.18041 2.31237 2.4452 2.57891 2.71351 2.84902 2.98545 3.09526 3.23337 3.37243 3.48437 3.62518 3.76699 3.88115 4.02477 4.16942 4.2859 4.43244 4.58006 4.69894 4.84854 4.99925 5.12063 5.2734 5.42734 5.55134 5.70742 5.86472 5.99145 6.15099 6.3118 6.44139 6.60455 6.76904 6.9016 7 1.277 1.40239 1.52857 1.65554 1.78331 1.9119 2.04132 2.17157 2.30267 2.43463 2.56746 2.70117 2.83577 2.97128 3.1077 3.21751 3.35562 3.49468 3.60663 3.74744 3.88924 4.00341 4.14703 4.29168 4.40815 4.5547 4.70232 4.8212 4.97079 5.1215 5.24289 5.39566 5.54959 5.67359 5.82967 5.98697 6.1137 6.27324 6.43406 6.56364 6.7268 6.89129 7 1.39967 1.52506 1.65124 1.77821 1.90598 2.03457 2.16399 2.29424 2.42534 2.5573 2.69013 2.82384 2.95844 3.09395 3.23038 3.34018 3.47829 3.61736 3.7293 3.87011 4.01191 4.12608 4.2697 4.41435 4.53083 4.67737 4.82499 4.94387 5.09346 5.24418 5.36556 5.51833 5.67226 5.79626 5.95235 6.10965 6.23638 6.39592 6.55673 6.68631 6.84947 7 1.52277 1.64816 1.77433 1.9013 2.02908 2.15767 2.28708 2.41734 2.54844 2.68039 2.81322 2.94693 3.08154 3.21704 3.35347 3.46328 3.60139 3.74045 3.85239 3.99321 4.13501 4.24917 4.39279 4.53745 4.65392 4.80047 4.94809 5.06697 5.21656 5.36727 5.48866 5.64142 5.79536 5.91936 6.07544 6.23274 6.35947 6.51901 6.67983 6.80941 6.97257 7 1.64629 1.77168 1.89785 2.02482 2.15259 2.28118 2.4106 2.54085 2.67195 2.80391 2.93674 3.07045 3.20505 3.34056 3.47699 3.5868 3.72491 3.86397 3.97591 4.11672 4.25853 4.37269 4.51631 4.66096 4.77744 4.92398 5.0716 5.19048 5.34008 5.49079 5.61217 5.76494 5.91888 6.04288 6.19896 6.35626 6.48299 6.64253 6.80334 6.93293 7 1.77023 1.89562 2.02179 2.14876 2.27654 2.40513 2.53454 2.6648 2.7959 2.92786 3.06068 3.19439 3.329 3.46451 3.60093 3.71074 3.84885 3.98791 4.09986 4.24067 4.38247 4.49663 4.64026 4.78491 4.90138 5.04793 5.19555 5.31443 5.46402 5.61473 5.73612 5.88888 6.04282 6.16682 6.3229 6.4802 6.60693 6.76647 6.92729 7 1.8946 2.01999 2.14617 2.27314 2.40091 2.5295 2.65892 2.78917 2.92027 3.05223 3.18506 3.31877 3.45337 3.58888 3.7253 3.83511 3.97322 4.11229 4.22423 4.36504 4.50684 4.62101 4.76463 4.90928 5.02576 5.1723 5.31992 5.4388 5.58839 5.7391 5.86049 6.01326 6.16719 6.29119 6.44728 6.60458 6.73131 6.89085 7 2.01941 2.1448 2.27097 2.39794 2.52572 2.65431 2.78372 2.91398 3.04508 3.17704 3.30986 3.44357 3.57818 3.71369 3.85011 3.95992 4.09803 4.23709 4.34904 4.48985 4.63165 4.74581 4.88944 5.03409 5.15056 5.29711 5.44473 5.56361 5.7132 5.86391 5.9853 6.13807 6.292 6.416 6.57208 6.72938 6.85611 7 2.14465 2.27004 2.39622 2.52319 2.65096 2.77955 2.90897 3.03922 3.17032 3.30228 3.43511 3.56882 3.70342 3.83893 3.97535 4.08516 4.22327 4.36233 4.47428 4.61509 4.75689 4.87106 5.01468 5.15933 5.2758 5.42235 5.56997 5.68885 5.83844 5.98915 6.11054 6.26331 6.41724 6.54124 6.69732 6.85462 6.98135 7 2.27033 2.39572 2.5219 2.64887 2.77664 2.90523 3.03465 3.1649 3.296 3.42796 3.56079 3.6945 3.8291 3.96461 4.10103 4.21084 4.34895 4.48801 4.59996 4.74077 4.88257 4.99674 5.14036 5.28501 5.40149 5.54803 5.69565 5.81453 5.96412 6.11483 6.23622 6.38899 6.54292 6.66692 6.823 6.9803 7 2.39646 2.52185 2.64802 2.77499 2.90276 3.03135 3.16077 3.29102 3.42212 3.55408 3.68691 3.82062 3.95522 4.09073 4.22716 4.33697 4.47508 4.61414 4.72608 4.86689 5.0087 5.12286 5.26648 5.41113 5.52761 5.67415 5.82177 5.94065 6.09025 6.24096 6.36234 6.51511 6.66905 6.79305 6.94913 7 2.52302 2.64841 2.77459 2.90156 3.02933 3.15792 3.28734 3.41759 3.54869 3.68065 3.81348 3.94719 4.08179 4.2173 4.35372 4.46353 4.60164 4.7407 4.85265 4.99346 5.13526 5.24943 5.39305 5.5377 5.65418 5.80072 5.94834 6.06722 6.21681 6.36752 6.48891 6.64168 6.79561 6.91961 7 2.65004 2.77543 2.9016 3.02857 3.15635 3.28494 3.41435 3.54461 3.67571 3.80766 3.94049 4.0742 4.20881 4.34431 4.48074 4.59055 4.72866 4.86772 4.97966 5.12048 5.26228 5.37644 5.52006 5.66472 5.78119 5.92774 6.07536 6.19424 6.34383 6.49454 6.61593 6.76869 6.92263 7 2.77751 2.90289 3.02907 3.15604 3.28381 3.4124 3.54182 3.67207 3.80317 3.93513 4.06796 4.20167 4.33627 4.47178 4.60821 4.71802 4.85612 4.99519 5.10713 5.24794 5.38974 5.50391 5.64753 5.79218 5.90866 6.0552 6.20282 6.3217 6.47129 6.62201 6.74339 6.89616 7 2.90543 3.03082 3.15699 3.28396 3.41173 3.54032 3.66974 3.79999 3.93109 4.06305 4.19588 4.32959 4.46419 4.5997 4.73613 4.84594 4.98405 5.12311 5.23505 5.37586 5.51767 5.63183 5.77545 5.9201 6.03658 6.18312 6.33074 6.44962 6.59922 6.74993 6.87131 7 3.03381 3.15919 3.28537 3.41234 3.54011 3.6687 3.79812 3.92837 4.05947 4.19143 4.32426 4.45797 4.59257 4.72808 4.86451 4.97432 5.11242 5.25149 5.36343 5.50424 5.64604 5.76021 5.90383 6.04848 6.16496 6.3115 6.45912 6.578 6.72759 6.87831 6.99969 3.16265 3.28803 3.41421 3.54118 3.66895 3.79754 3.92696 4.05721 4.18831 4.32027 4.4531 4.58681 4.72141 4.85692 4.99335 5.10316 5.24126 5.38033 5.49227 5.63308 5.77488 5.88905 6.03267 6.17732 6.2938 6.44034 6.58796 6.70684 6.85643 7 3.29195 3.41734 3.54351 3.67048 3.79826 3.92685 4.05626 4.18652 4.31762 4.44957 4.5824 4.71611 4.85072 4.98622 5.12265 5.23246 5.37057 5.50963 5.62157 5.76239 5.90419 6.01835 6.16197 6.30663 6.4231 6.56965 6.71727 6.83615 6.98574 7 3.42172 3.54711 3.67328 3.80025 3.92803 4.05662 4.18603 4.31629 4.44739 4.57935 4.71217 4.84588 4.98049 5.116 5.25242 5.36223 5.50034 5.6394 5.75135 5.89216 6.03396 6.14812 6.29175 6.4364 6.55287 6.69942 6.84704 6.96592 7 3.55196 3.67735 3.80353 3.9305 4.05827 4.18686 4.31628 4.44653 4.57763 4.70959 4.84242 4.97613 5.11073 5.24624 5.38266 5.49247 5.63058 5.76964 5.88159 6.0224 6.1642 6.27837 6.42199 6.56664 6.68312 6.82966 6.97728 7 3.68268 3.80807 3.93424 4.06121 4.18899 4.31758 4.44699 4.57725 4.70835 4.84031 4.97313 5.10684 5.24145 5.37696 5.51338 5.62319 5.7613 5.90036 6.01231 6.15312 6.29492 6.40908 6.55271 6.69736 6.81383 6.96038 7 3.81388 3.93926 4.06544 4.19241 4.32018 4.44877 4.57819 4.70844 4.83954 4.9715 5.10433 5.23804 5.37264 5.50815 5.64458 5.75439 5.89249 6.03156 6.1435 6.28431 6.42611 6.54028 6.6839 6.82855 6.94503 7 3.94555 4.07094 4.19712 4.32409 4.45186 4.58045 4.70987 4.84012 4.97122 5.10318 5.23601 5.36972 5.50432 5.63983 5.77625 5.88606 6.02417 6.16323 6.27518 6.41599 6.55779 6.67196 6.81558 6.96023 7 4.07771 4.2031 4.32928 4.45625 4.58402 4.71261 4.84203 4.97228 5.10338 5.23534 5.36817 5.50188 5.63648 5.77199 5.90841 6.01822 6.15633 6.29539 6.40734 6.54815 6.68995 6.80412 6.94774 7 4.21036 4.33575 4.46193 4.5889 4.71667 4.84526 4.97468 5.10493 5.23603 5.36799 5.50082 5.63453 5.76913 5.90464 6.04106 6.15087 6.28898 6.42804 6.53999 6.6808 6.8226 6.93677 7 4.34351 4.4689 4.59507 4.72204 4.84981 4.9784 5.10782 5.23807 5.36917 5.50113 5.63396 5.76767 5.90227 6.03778 6.17421 6.28402 6.42213 6.56119 6.67313 6.81394 6.95575 7 4.47714 4.60253 4.72871 4.85568 4.98345 5.11204 5.24146 5.37171 5.50281 5.63477 5.7676 5.90131 6.03591 6.17142 6.30784 6.41765 6.55576 6.69483 6.80677 6.94758 7 4.61128 4.73667 4.86285 4.98982 5.11759 5.24618 5.3756 5.50585 5.63695 5.76891 5.90174 6.03545 6.17005 6.30556 6.44198 6.55179 6.6899 6.82896 6.94091 7 4.74592 4.87131 4.99749 5.12446 5.25223 5.38082 5.51024 5.64049 5.77159 5.90355 6.03638 6.17009 6.30469 6.4402 6.57662 6.68643 6.82454 6.9636 7 4.88107 5.00646 5.13264 5.2596 5.38738 5.51597 5.64539 5.77564 5.90674 6.0387 6.17153 6.30524 6.43984 6.57535 6.71177 6.82158 6.95969 7 5.01673 5.14212 5.26829 5.39526 5.52304 5.65163 5.78104 5.9113 6.0424 6.17436 6.30718 6.44089 6.5755 6.71101 6.84743 6.95724 7 5.1529 5.27829 5.40447 5.53144 5.65921 5.7878 5.91722 6.04747 6.17857 6.31053 6.44336 6.57707 6.71167 6.84718 6.98361 7 5.2896 5.41499 5.54116 5.66813 5.79591 5.9245 6.05391 6.18416 6.31526 6.44722 6.58005 6.71376 6.84836 6.98387 7 5.42681 5.5522 5.67838 5.80535 5.93312 6.06171 6.19113 6.32138 6.45248 6.58444 6.71727 6.85098 6.98558 7 5.56456 5.68994 5.81612 5.94309 6.07086 6.19945 6.32887 6.45912 6.59022 6.72218 6.85501 6.98872 7 5.70283 5.82822 5.95439 6.08136 6.20914 6.33773 6.46714 6.5974 6.7285 6.86045 6.99328 7 5.84164 5.96703 6.0932 6.22017 6.34794 6.47653 6.60595 6.7362 6.8673 6.99926 7 5.98098 6.10637 6.23255 6.35952 6.48729 6.61588 6.7453 6.87555 7 6.12087 6.24626 6.37244 6.49941 6.62718 6.75577 6.88519 7 6.26131 6.3867 6.51288 6.63984 6.76762 6.89621 7 6.4023 6.52769 6.65387 6.78083 6.90861 7 6.54385 6.66924 6.79541 6.92238 7 6.68595 6.81134 6.93752 7 6.82862 6.95401 7 6.97187 7 
</DataArray>

</PointData>
<CellData Scalars=" CellData">
<DataArray type="Float32" Name="radius" NumberOfComponents="1" format="ascii" >
0.2 0.04 0.04 0.04 0.04 0.04 0.04 0.04 0.04 0.04 0.04 0.04 0.04 0.04 0.04 0.04 0.04 0.04 0.04 0.04 0.04 0.04 0.04 0.04 0.04 0.04 0.04 0.04 0.04 0.04 0.04 0.04 0.04 0.04 0.04 0.04 0.04 0.04 0.04 0.04 0.04 0.04 0.04 0.04 0.04 0.04 0.04 0.04 0.04 0.04 0.04 
</DataArray>
<DataArray type="Float32" Name="subType" NumberOfComponents="1" format="ascii" >
1 2 2 2 2 2 2 2 2 2 2 2 2 2 2 2 2 2 2 2 2 2 2 2 2 2 2 2 2 2 2 2 2 2 2 2 2 2 2 2 2 2 2 2 2 2 2 2 2 2 2 
</DataArray>
<DataArray type="Float32" Name="creationTime" NumberOfComponents="1" format="ascii" >
0 0.549643 0.66985 0.790461 0.911479 1.03291 1.15475 1.277 1.39967 1.52277 1.64629 1.77023 1.8946 2.01941 2.14465 2.27033 2.39646 2.52302 2.65004 2.77751 2.90543 3.03381 3.16265 3.29195 3.42172 3.55196 3.68268 3.81388 3.94555 4.07771 4.21036 4.34351 4.47714 4.61128 4.74592 4.88107 5.01673 5.1529 5.2896 5.42681 5.56456 5.70283 5.84164 5.98098 6.12087 6.26131 6.4023 6.54385 6.68595 6.82862 6.97187 
</DataArray>

</CellData>
<Points>
<DataArray type="Float32" Name="Coordinates" NumberOfComponents="3" format="ascii" >
0 0 -3 -0.00108047 0.00122872 -3.24999 -0.00531294 0.000232933 -3.49996 -0.00531624 -0.00215839 -3.74995 -0.0205404 0.0221235 -3.9983 -0.041132 0.0441849 -4.24647 -0.0719099 0.0503063 -4.49449 -0.0797285 0.0550992 -4.64421 -0.094938 0.0602023 -4.8937 -0.108239 0.0715981 -5.14308 -0.119424 0.0767989 -5.29257 -0.139604 0.0788464 -5.54175 -0.131283 0.128793 -5.78657 -0.131908 0.155079 -5.93425 -0.123026 0.190718 -6.18153 -0.106269 0.221623 -6.42905 -0.0961561 0.23967 -6.57761 -0.0607477 0.265403 -6.82375 -0.0170959 0.287776 -7.06889 0.00911723 0.296344 -7.21634 0.0525249 0.312592 -7.462 0.0934764 0.323232 -7.7084 0.115891 0.316083 -7.85654 0.153491 0.303427 -8.10337 0.195647 0.276782 -8.34835 0.217878 0.272238 -8.49662 0.25403 0.26672 -8.74393 0.282462 0.25869 -8.99218 0.282966 0.244812 -9.14154 0.296602 0.234692 -9.39096 0.308124 0.216294 -9.64001 0.313933 0.202158 -9.78923 0.324933 0.185811 -10.0385 0.325081 0.183073 -10.2884 0.323137 0.183393 -10.4384 0.327274 0.183629 -10.6884 0.270974 0.181236 -10.932 0.238431 0.18428 -11.0784 0.199971 0.194608 -11.3252 0.131713 0.211933 -11.565 0.0920467 0.225323 -11.7091 0.028669 0.247898 -11.9499 -0.0258001 0.236995 -12.1936 -0.057386 0.241983 -12.3402 -0.0881564 0.232199 -12.5881 -0.112376 0.223864 -12.8367 -0.129319 0.220605 -12.9858 -0.156672 0.204166 -13.2337 -0.182411 0.192679 -13.4821 -0.196692 0.187206 -13.6313 -0.224529 0.176338 -13.8795 -0.254403 0.162972 -14.1274 -0.276287 0.160458 -14.2758 -0.297477 0.179774 -14.5241 -0.28984 0.170298 -14.7738 -0.286547 0.164202 -14.9237 -0.299518 0.162322 -15.1733 -0.292329 0.160012 -15.4232 -0.287984 0.15932 -15.5731 -0.292154 0.15035 -15.8229 -0.290247 0.155931 -16.0729 -0.291418 0.155191 -16.2229 -0.287758 0.152724 -16.4728 -0.291562 0.149374 -16.7228 -0.294223 0.155374 -16.8726 -0.311623 0.125909 -17.1203 -0.329825 0.0943953 -17.3676 -0.336844 0.0787155 -17.5166 -0.348988 0.0521473 -17.7649 -0.345392 0.0366438 -18.0144 -0.344049 0.0280387 -18.1642 -0.342569 0.0309158 -18.4141 -0.338154 0.0369837 -18.664 -0.349485 0.038491 -18.8136 -0.362867 0.0284318 -19.063 -0.373849 0.0274587 -19.3128 -0.378352 0.0270389 -19.4627 -0.39106 0.021511 -19.7123 -0.415842 0.0441839 -19.9601 -0.430402 0.057631 -20.1087 -0.448033 0.0759623 -20.3574 -0.448204 0.0971903 -20.6065 -0.449209 0.0881282 -20.7563 -0.453982 0.0685997 -21.0055 -0.459882 0.0744566 -21.2553 -0.46023 0.07794 -21.4053 -0.484126 0.058866 -21.6534 -0.497326 0.0351561 -21.9019 -0.500567 0.0267288 -22.0517 -0.514618 0.00745726 -22.3005 -0.506178 -0.0239695 -22.5484 -0.506568 -0.0376823 -22.6978 -0.52128 -0.0613819 -22.9462 -0.55562 -0.0832072 -23.1929 -0.573963 -0.0935964 -23.3414 -0.591303 -0.101261 -23.5907 -0.614772 -0.115382 -23.8391 -0.627076 -0.12724 -23.9882 -0.631561 -0.14046 -24.2378 -0.637112 -0.153274 -24.4874 -0.64018 -0.147069 -24.6372 -0.651989 -0.138547 -24.8868 -0.672854 -0.125994 -25.1356 -0.680967 -0.123626 -25.2854 -0.686915 -0.114934 -25.5352 -0.710297 -0.0977224 -25.7835 -0.718941 -0.0934539 -25.9332 -0.715162 -0.0799954 -26.1828 -0.698916 -0.083562 -26.4322 -0.687497 -0.0940065 -26.5814 -0.699898 -0.106308 -26.8308 -0.7164 -0.12327 -27.0797 -0.724244 -0.123201 -27.2295 -0.732288 -0.120982 -27.4793 -0.743195 -0.142759 -27.7281 -0.74671 -0.152812 -27.8778 -0.750687 -0.152047 -28.1277 -0.749745 -0.153922 -28.3777 -0.750895 -0.146524 -28.5275 -0.735019 -0.11359 -28.7748 -0.715786 -0.0970177 -29.0236 -0.699329 -0.0922834 -29.1726 -0.672201 -0.0844778 -29.421 -0.642628 -0.079972 -29.6692 -0.632171 -0.0709294 -29.8185 -0.617846 -0.0670726 -30.0681 -0.596513 -0.0314499 -30.3146 -0.598482 -0.00691994 -30.4626 -0.618868 0.0429065 -30.7067 -0.624857 0.158764 -30.9282 -0.618286 0.231406 -31.0593 -0.64215 0.348284 -31.279 -0.672023 0.467228 -31.4968 -0.702405 0.52249 -31.6329 -0.751983 0.623075 -31.8564 -0.800016 0.712453 -32.0848 -0.836637 0.756145 -32.2236 -0.877614 0.831445 -32.4584 -0.938339 0.903269 -32.6901 -0.980032 0.938755 -32.8297 -1.0374 0.980462 -33.0694 -1.06388 1.05782 -33.3057 -1.07642 1.10031 -33.449 -1.0906 1.1766 -33.6866 -1.10447 1.24992 -33.9252 -1.11778 1.30359 -34.0647 -1.13774 1.41607 -34.2871 -1.15229 1.52921 -34.5095 -1.15427 1.59682 -34.6434 -1.16017 1.7085 -34.867 -1.17429 1.81756 -35.0915 -1.19027 1.8764 -35.2286 -1.22138 1.96414 -35.4606 -1.25605 2.04449 -35.6948 -1.2761 2.09587 -35.8342 -1.30959 2.18114 -36.0669 -1.3392 2.25217 -36.3047 -1.35594 2.29527 -36.4474 -1.38886 2.34055 -36.6911 -1.43057 2.39987 -36.9303 -1.45974 2.4309 -37.0741 -1.49383 2.47082 -37.2436 -0.0205404 0.0221235 -3.9983 -0.138111 -0.187077 -4.06839 -0.231515 -0.41523 -4.10988 -0.320445 -0.639689 -4.17476 -0.404819 -0.860259 -4.2568 -0.470709 -1.05934 -4.3929 -0.584197 -1.23772 -4.52633 -0.683401 -1.40627 -4.68205 -0.728861 -1.60421 -4.82783 -0.839911 -1.77408 -4.97382 -0.956573 -1.94015 -5.1198 -1.07429 -2.10663 -5.26446 -1.22026 -2.25663 -5.40118 -1.35535 -2.41918 -5.53471 -1.46072 -2.61117 -5.65527 -1.53927 -2.76539 -5.7555 -1.63401 -2.95813 -5.88347 -1.70772 -3.16839 -5.99687 -1.71977 -3.31102 -6.13654 -1.75957 -3.5303 -6.24983 -1.85802 -3.72107 -6.37795 -1.93304 -3.88556 -6.46347 -2.01007 -4.0878 -6.58864 -2.0871 -4.29033 -6.71333 -2.12051 -4.44696 -6.83313 -2.15744 -4.64435 -6.98204 -2.20962 -4.84192 -7.12606 -2.249 -4.9872 -7.25776 -2.29596 -5.16792 -7.42399 -2.35904 -5.34719 -7.58642 -2.39319 -5.50537 -7.70395 -2.42975 -5.70685 -7.84737 -2.40891 -5.90926 -7.99261 -2.38698 -6.05547 -8.1273 -2.34846 -6.19424 -8.33166 -2.2573 -6.28752 -8.54494 -2.20647 -6.37298 -8.71847 -2.13989 -6.48761 -8.93042 -2.07833 -6.5829 -9.1532 -1.99511 -6.63773 -9.3266 -1.88928 -6.7294 -9.53372 -1.80436 -6.84991 -9.73563 -1.72855 -6.95378 -9.88881 -1.65797 -7.07987 -10.0928 -1.58539 -7.20327 -10.2978 -1.58405 -7.31046 -10.4666 -1.58218 -7.44373 -10.6781 -1.5821 -7.49016 -10.7548 -0.0797285 0.0550992 -4.64421 -0.285238 0.163531 -4.73645 -0.485246 0.279636 -4.83141 -0.692076 0.394303 -4.91248 -0.895365 0.529554 -4.96615 -1.1154 0.643274 -5.00009 -1.33117 0.752018 -5.06428 -1.5531 0.858674 -5.10754 -1.78138 0.956079 -5.13756 -1.99606 1.06059 -5.21164 -2.21768 1.16295 -5.26556 -2.43197 1.28765 -5.29761 -2.6591 1.37482 -5.35519 -2.89444 1.45022 -5.39304 -3.11315 1.56824 -5.42014 -3.28536 1.66995 -5.42069 -3.50636 1.78549 -5.43823 -3.73087 1.89471 -5.4511 -3.90502 1.99281 -5.44408 -4.10714 2.13841 -5.42288 -4.32722 2.25699 -5.42091 -4.48843 2.36828 -5.3806 -4.70056 2.48573 -5.31974 -4.87856 2.58723 -5.1765 -5.01708 2.66777 -5.05682 -5.1887 2.76652 -4.90419 -5.38267 2.85249 -4.77196 -5.52996 2.9319 -4.66241 -5.71259 3.01993 -4.51613 -5.8918 3.11009 -4.36696 -6.03568 3.18251 -4.24841 -6.19022 3.29021 -4.08403 -6.33178 3.41604 -3.92086 -6.42741 3.55278 -3.8106 -6.52754 3.72605 -3.66076 -6.60134 3.88722 -3.48447 -6.65952 4.0187 -3.34544 -6.71497 4.15561 -3.14375 -6.71143 4.31579 -2.95184 -6.71419 4.44839 -2.80214 -6.71459 4.61618 -2.61681 -6.71606 4.78507 -2.43249 -6.74709 4.92917 -2.29732 -6.75313 5.15933 -2.1999 -6.75636 5.40159 -2.13826 -6.76654 5.59396 -2.08448 -6.78718 5.75345 -2.04971 -0.119424 0.0767989 -5.29257 -0.319711 0.215302 -5.34916 -0.519897 0.355555 -5.40165 -0.719993 0.496323 -5.45308 -0.920773 0.636419 -5.50369 -1.12838 0.765717 -5.55545 -1.30816 0.938809 -5.57028 -1.52209 1.06816 -5.57177 -1.74204 1.18698 -5.56988 -1.94672 1.32298 -5.61579 -2.14625 1.43951 -5.71124 -2.30535 1.60861 -5.80395 -2.46644 1.77347 -5.90075 -2.63331 1.94611 -5.97037 -2.79148 2.12258 -6.05 -2.912 2.27071 -6.10943 -3.07875 2.42609 -6.21216 -3.27268 2.57667 -6.25925 -3.42645 2.70022 -6.29224 -3.61618 2.85939 -6.32645 -3.80022 3.02384 -6.36624 -3.9402 3.1642 -6.39282 -4.10095 3.35061 -6.34913 -4.2509 3.52593 -6.25281 -4.37145 3.67288 -6.19057 -4.5341 3.848 -6.11722 -4.7087 4.01121 -6.0439 -4.86371 4.12709 -5.99348 -5.04526 4.27437 -5.90488 -5.22119 4.41196 -5.79255 -5.33877 4.53422 -5.68659 -5.49398 4.69859 -5.57986 -5.65004 4.86089 -5.47121 -5.73068 5.02906 -5.39898 -5.8331 5.23438 -5.29973 -5.93566 5.4385 -5.19815 -6.01704 5.60227 -5.11719 -6.12417 5.80898 -5.02609 -6.24165 6.01313 -4.9423 -6.32141 6.18713 -4.88433 -6.42164 6.40216 -4.80547 -6.48701 6.58276 -4.64544 -6.55685 6.73445 -4.53538 -6.65509 6.90683 -4.38329 -6.81229 7.06696 -4.27307 -6.92033 7.1916 -4.18324 -0.131908 0.155079 -5.93425 -0.301179 0.329971 -5.99134 -0.479702 0.497517 -6.04192 -0.580732 0.710335 -6.12559 -0.650645 0.946659 -6.16758 -0.73416 1.17684 -6.21802 -0.813371 1.40968 -6.26283 -0.905417 1.63722 -6.31029 -0.997822 1.86466 -6.35757 -1.04921 2.10366 -6.4099 -1.07528 2.34416 -6.47299 -1.0662 2.59248 -6.50046 -1.05939 2.84047 -6.53132 -1.06334 3.08864 -6.56128 -1.07654 3.33714 -6.58522 -1.09534 3.53285 -6.62186 -1.14522 3.77782 -6.62358 -1.24414 4.00703 -6.63684 -1.32112 4.19159 -6.64067 -1.4316 4.415 -6.66017 -1.58078 4.60987 -6.70782 -1.70296 4.76403 -6.74396 -1.8563 4.94746 -6.81704 -2.0088 5.13394 -6.8839 -2.13176 5.29149 -6.89167 -2.28664 5.48751 -6.90108 -2.42323 5.69425 -6.86791 -2.51805 5.86881 -6.84476 -2.68778 6.04447 -6.79151 -2.88163 6.19403 -6.74096 -3.03739 6.31268 -6.70019 -3.2315 6.46231 -6.65086 -3.42552 6.61311 -6.60489 -3.58244 6.72471 -6.55086 -3.79159 6.83218 -6.46595 -3.99603 6.93838 -6.36888 -4.16193 7.01983 -6.29243 -4.38011 7.13725 -6.25911 -4.60244 7.25155 -6.26169 -4.7809 7.34183 -6.26067 -4.99734 7.4666 -6.26975 -5.21173 7.59329 -6.29185 -5.37599 7.6992 -6.33433 -5.58169 7.82986 -6.39011 -5.78833 7.95903 -6.44596 -5.79608 7.96394 -6.44815 -0.0961561 0.23967 -6.57761 -0.331234 0.205894 -6.6557 -0.561509 0.172816 -6.74724 -0.800261 0.179473 -6.82108 -1.038 0.180581 -6.8984 -1.27881 0.183159 -6.96553 -1.5243 0.168364 -7.0104 -1.766 0.130204 -7.06166 -2.01193 0.104214 -7.09826 -2.26108 0.083851 -7.09523 -2.50991 0.0598225 -7.09277 -2.75274 0.00635888 -7.06677 -2.98516 -0.0845155 -7.0518 -3.21684 -0.172998 -7.02024 -3.45504 -0.247968 -7.00837 -3.65056 -0.289537 -7.01489 -3.8805 -0.374905 -7.06328 -4.12671 -0.415688 -7.07804 -4.32347 -0.449636 -7.08955 -4.57181 -0.477429 -7.08225 -4.8209 -0.460319 -7.06943 -5.0146 -0.445273 -7.02199 -5.26329 -0.443457 -6.99644 -5.5126 -0.427924 -6.98637 -5.71185 -0.411304 -6.98139 -5.95371 -0.354541 -6.95347 -6.19527 -0.300903 -6.91781 -6.38644 -0.264334 -6.8718 -6.627 -0.223866 -6.81709 -6.87083 -0.200592 -6.76703 -7.06671 -0.182995 -6.73067 -7.30546 -0.115752 -6.69939 -7.54184 -0.0394339 -6.67111 -7.72211 0.0466425 -6.66161 -7.95793 0.107011 -6.60461 -8.18555 0.170659 -6.52313 -8.35466 0.220298 -6.4286 -8.56942 0.296122 -6.3255 -8.79071 0.365955 -6.23247 -8.97817 0.428587 -6.20189 -9.20816 0.522472 -6.17379 -9.44892 0.576347 -6.1334 -9.63688 0.634625 -6.09767 -9.87112 0.709512 -6.0527 -9.9433 0.739938 -6.0399 0.00911723 0.296344 -7.21634 0.222261 0.178561 -7.27288 0.430547 0.0477894 -7.31778 0.638874 -0.0834628 -7.36105 0.839429 -0.225411 -7.40719 1.02584 -0.372292 -7.48577 1.21278 -0.520525 -7.56048 1.35958 -0.694605 -7.66366 1.50944 -0.872014 -7.75623 1.66323 -1.04785 -7.84527 1.82257 -1.22113 -7.92946 2.00074 -1.37996 -8.0038 2.1648 -1.56327 -8.04835 2.31172 -1.76349 -8.07708 2.44177 -1.96474 -8.14839 2.51637 -2.14588 -8.18864 2.61924 -2.37136 -8.22153 2.71073 -2.59672 -8.27933 2.73513 -2.7897 -8.32581 2.72682 -3.03671 -8.36345 2.70313 -3.28544 -8.372 2.6374 -3.47429 -8.36768 2.55004 -3.70839 -8.3755 2.44989 -3.93721 -8.3861 2.34709 -4.10837 -8.39774 2.22816 -4.32584 -8.43038 2.13101 -4.55334 -8.46651 2.04633 -4.73168 -8.49851 1.92831 -4.95102 -8.51995 1.842 -5.17985 -8.57182 1.75991 -5.3491 -8.63974 1.63948 -5.55392 -8.7175 1.47724 -5.73965 -8.75852 1.35142 -5.88774 -8.80584 1.18018 -6.05646 -8.87447 1.00071 -6.19758 -8.97632 0.857756 -6.30141 -9.07005 0.678604 -6.44648 -9.16679 0.538438 -6.63752 -9.24653 0.412323 -6.78898 -9.2805 0.256415 -6.97294 -9.34645 0.0965326 -7.15176 -9.41691 -0.0348913 -7.29288 -9.46993 -0.135169 -7.39571 -9.50395 0.115891 0.316083 -7.85654 0.171664 0.55898 -7.8763 0.28691 0.780644 -7.88543 0.402478 1.00214 -7.89451 0.512311 1.22671 -7.89699 0.646641 1.43755 -7.8967 0.782986 1.6471 -7.89705 0.922923 1.8475 -7.84453 1.04494 2.05115 -7.7662 1.16892 2.25766 -7.69923 1.28975 2.46264 -7.62251 1.46147 2.62027 -7.53217 1.66855 2.75818 -7.50764 1.88083 2.88885 -7.48864 2.08158 3.01771 -7.41384 2.25221 3.11312 -7.37164 2.43699 3.25425 -7.27978 2.65014 3.36247 -7.20658 2.8012 3.48123 -7.15112 2.9956 3.62144 -7.08006 3.19033 3.75908 -7.005 3.34461 3.86927 -6.94131 3.54729 3.99936 -6.87423 3.75311 4.12405 -6.80651 3.91082 4.23515 -6.75373 4.12648 4.33269 -6.67323 4.33533 4.42536 -6.57177 4.50865 4.48353 -6.49068 4.72915 4.56983 -6.41049 4.9433 4.64866 -6.30838 5.08652 4.77751 -6.25467 5.25282 4.96212 -6.22703 5.42334 5.13615 -6.17104 5.51447 5.30813 -6.125 5.61812 5.52422 -6.05388 5.72895 5.7459 -6.02103 5.81061 5.92679 -5.99636 5.8855 6.15976 -5.94519 5.96366 6.39497 -5.91254 6.05041 6.57186 -5.87814 6.15561 6.79739 -5.85422 6.27305 7.01801 -5.84838 6.37353 7.14462 -5.82002 0.217878 0.272238 -8.49662 0.00252898 0.26817 -8.62354 -0.205748 0.244082 -8.7597 -0.427053 0.250871 -8.8758 -0.648581 0.25775 -8.99146 -0.893957 0.240629 -9.03616 -1.12673 0.22643 -9.12623 -1.35079 0.165771 -9.21908 -1.57762 0.132023 -9.31861 -1.8085 0.0561932 -9.37729 -1.99962 -0.0867208 -9.4518 -2.16453 -0.259267 -9.52618 -2.31297 -0.447973 -9.59586 -2.47769 -0.622829 -9.66508 -2.6375 -0.797524 -9.74534 -2.7603 -0.941758 -9.8095 -2.91965 -1.12727 -9.8614 -3.07394 -1.31616 -9.91633 -3.19618 -1.46745 -9.96289 -3.35301 -1.63542 -10.0613 -3.52612 -1.8013 -10.1322 -3.65912 -1.93586 -10.197 -3.82026 -2.10894 -10.2781 -3.93481 -2.32246 -10.3397 -4.03311 -2.47986 -10.4142 -4.15707 -2.67648 -10.5063 -4.28119 -2.87609 -10.5914 -4.38036 -3.03584 -10.6596 -4.5138 -3.22838 -10.7469 -4.62233 -3.43433 -10.838 -4.7236 -3.58482 -10.9223 -4.86535 -3.78033 -10.987 -5.01383 -3.97344 -11.0432 -5.13141 -4.12857 -11.0891 -5.31124 -4.29986 -11.1178 -5.4934 -4.46932 -11.1423 -5.653 -4.58966 -11.1354 -5.85217 -4.74067 -11.1406 -6.07507 -4.85365 -11.1336 -6.24408 -4.95961 -11.148 -6.45762 -5.08792 -11.169 -6.67263 -5.16621 -11.173 0.282966 0.244812 -9.14154 0.359451 0.436555 -9.28255 0.440731 0.64802 -9.38827 0.495933 0.864429 -9.5006 0.564114 1.07976 -9.60776 0.677431 1.29549 -9.66363 0.777465 1.51466 -9.73039 0.882774 1.73236 -9.79377 0.985511 1.95676 -9.83365 1.10518 2.17426 -9.8632 1.26525 2.3619 -9.90405 1.4324 2.54771 -9.89825 1.61649 2.71312 -9.93365 1.80039 2.87847 -9.97023 1.98155 3.04554 -10.0123 2.12945 3.16542 -10.0736 2.30973 3.32105 -10.1496 2.47871 3.48779 -10.228 2.6136 3.63134 -10.2626 2.78494 3.79841 -10.3349 2.95426 3.96705 -10.4083 3.08031 4.11157 -10.4651 3.2482 4.29189 -10.5075 3.38839 4.49296 -10.5567 3.51314 4.64604 -10.5884 3.6111 4.8539 -10.6868 3.71672 5.05499 -10.7913 3.78507 5.20085 -10.9098 3.87864 5.39088 -11.0426 3.97639 5.58599 -11.1646 4.03472 5.74228 -11.2749 4.10254 5.9324 -11.4224 4.12984 6.11735 -11.5884 4.17247 6.25535 -11.7267 4.17247 6.44068 -11.8945 4.1719 6.63197 -12.0555 4.1718 6.78471 -12.1846 4.14629 6.98428 -12.333 4.15316 7.18536 -12.4814 4.14678 7.33578 -12.613 4.12322 7.51511 -12.7856 4.11922 7.54352 -12.8161 0.313933 0.202158 -9.78923 0.539501 0.116565 -9.85475 0.763926 0.0303923 -9.92337 0.975739 -0.0319588 -10.0406 1.1622 -0.132144 -10.1736 1.36905 -0.20505 -10.2936 1.56913 -0.300278 -10.4094 1.77151 -0.407979 -10.5091 1.9783 -0.488731 -10.6241 2.18984 -0.557934 -10.7379 2.41089 -0.637232 -10.8236 2.61476 -0.748057 -10.9167 2.81246 -0.846215 -11.0341 3.00303 -0.951826 -11.1566 3.19232 -1.05963 -11.2793 3.33537 -1.15741 -11.3792 3.49164 -1.28971 -11.5226 3.67023 -1.39762 -11.6603 3.81946 -1.47913 -11.7656 4.01911 -1.56877 -11.8865 4.22752 -1.6091 -12.0185 4.3991 -1.61392 -12.1212 4.61197 -1.61531 -12.2523 4.83777 -1.6541 -12.3523 5.02113 -1.69794 -12.4191 5.23432 -1.73162 -12.5453 5.46143 -1.73678 -12.6496 5.64819 -1.73476 -12.7211 5.87695 -1.7407 -12.8218 6.11824 -1.74992 -12.8866 6.31226 -1.75694 -12.9346 6.5445 -1.73097 -13.0234 6.77661 -1.7059 -13.1129 6.96487 -1.68732 -13.1778 7.2091 -1.69968 -13.2297 7.45253 -1.71379 -13.2849 7.64938 -1.74914 -13.2833 7.89505 -1.79086 -13.3034 8.13633 -1.84972 -13.3321 8.32749 -1.89448 -13.3702 8.42309 -1.92896 -13.387 0.323137 0.183393 -10.4384 0.412519 -0.0352195 -10.5204 0.489611 -0.270817 -10.5528 0.578194 -0.500797 -10.5948 0.6862 -0.722513 -10.6357 0.763892 -0.930341 -10.7509 0.824924 -1.12856 -10.8905 0.890533 -1.31047 -11.049 0.967699 -1.49811 -11.195 1.04285 -1.71857 -11.2859 1.12203 -1.92453 -11.4034 1.20593 -2.13259 -11.5137 1.27487 -2.34811 -11.62 1.29338 -2.58004 -11.7115 1.33317 -2.80072 -11.822 1.35028 -2.96547 -11.9341 1.36893 -3.17119 -12.0749 1.40552 -3.36925 -12.223 1.42937 -3.52542 -12.3457 1.49014 -3.7417 -12.4554 1.55059 -3.96142 -12.5582 1.58562 -4.14084 -12.6393 1.62542 -4.3682 -12.7353 1.66474 -4.59876 -12.8236 1.68756 -4.78279 -12.8985 1.67896 -5.0188 -12.9805 1.70751 -5.24388 -13.0855 1.73526 -5.4216 -13.173 1.71408 -5.64553 -13.2821 1.61793 -5.84534 -13.3975 1.52895 -5.99991 -13.488 1.43082 -6.18133 -13.6293 1.32572 -6.35671 -13.7732 1.2202 -6.49203 -13.8759 1.12394 -6.68372 -14.0043 1.01968 -6.88751 -14.1048 0.930135 -7.04078 -14.197 0.81670