<?xml version="1.0"?><VTKFile type="PolyData" version="0.1" byte_order="LittleEndian">
<PolyData>
<Piece NumberOfLines="131" NumberOfPoints="9538">
<PointData Scalars=" PointData">
<DataArray type="Float32" Name="time" NumberOfComponents="1" format="ascii" >
0 0.0454834 0.0910244 0.136623 0.18228 0.227996 0.273769 0.301261 0.347128 0.393054 0.420638 0.466658 0.512737 0.540413 0.586587 0.63282 0.660589 0.706918 0.753307 0.781169 0.827654 0.8742 0.902156 0.948798 0.995501 1.02355 1.07035 1.11721 1.14536 1.19232 1.23934 1.26758 1.3147 1.36188 1.39022 1.4375 1.48485 1.51328 1.56073 1.60824 1.63677 1.68438 1.73205 1.76068 1.80845 1.85629 1.88502 1.93296 1.98096 2.00979 2.0579 2.10607 2.135 2.18328 2.23162 2.26065 2.30909 2.3576 2.38674 2.43535 2.48403 2.51327 2.56206 2.61091 2.64025 2.68921 2.73824 2.76768 2.81682 2.86602 2.89557 2.94488 2.99426 3.02391 3.0734 3.12295 3.15272 3.20238 3.25211 3.28199 3.33183 3.38174 3.41172 3.46175 3.51184 3.54193 3.59213 3.64241 3.67261 3.723 3.77346 3.80377 3.85434 3.90498 3.93541 3.98617 4.037 4.06753 4.11848 4.1695 4.20014 4.25128 4.30249 4.33325 4.38457 4.43597 4.46685 4.51836 4.56996 4.60095 4.65266 4.70444 4.73555 4.78745 4.83943 4.87066 4.92276 4.97493 5.00628 5.05858 5.11095 5.14241 5.19491 5.24748 5.27906 5.33176 5.38454 5.41624 5.46914 5.52212 5.55394 5.60704 5.66023 5.69217 5.74548 5.79887 5.83094 5.88445 5.93805 5.97025 6.02397 6.07777 6.11009 6.16403 6.21804 6.25049 6.30463 6.35886 6.39144 6.44579 6.50023 6.53294 6.58751 6.64217 6.675 6.72979 6.78467 6.81763 6.87264 6.92773 6.96083 7.01606 7.07137 7.1046 7.16005 7.21558 7.24895 7.30462 7.36038 7.39388 7.44978 7.50577 7.5394 7.59553 7.65174 7.68551 7.74187 7.79831 7.83222 7.88881 7.94548 7.97953 8.03635 8.09326 8.12745 8.18451 8.24165 8.27599 8.33328 8.39066 8.42513 8.48266 8.54029 8.57491 8.63268 8.69054 8.72531 8.78332 8.84143 8.87634 8.9346 8.99295 9.02801 9.08652 9.14512 9.18032 9.23908 9.29793 9.33329 9.3923 9.4514 9.48691 9.54617 9.60553 9.64119 9.7007 9.76032 9.79613 9.85591 9.91578 9.95175 10.0118 10.0719 10.108 10.1683 10.2287 10.265 10.3256 10.3862 10.4227 10.4835 10.5445 10.5811 10.6422 10.7034 10.7401 10.8015 10.863 10.8999 10.9615 11.0233 11.0604 11.1223 11.1843 11.2216 11.2838 11.3461 11.3835 11.446 11.5086 11.5462 11.609 11.6719 11.7096 11.7727 11.8358 11.8738 11.9371 12.0006 12.0387 12.1023 12.1661 12.2044 12.2683 12.3324 12.3708 12.4351 12.4994 12.5381 12.6026 12.6672 12.7061 12.7709 12.8358 12.8749 12.94 13.0052 13.0444 13.1099 13.1754 13.2148 13.2806 13.3465 13.3861 13.4521 13.5183 13.5581 13.6245 13.691 13.7309 13.7977 13.8645 13.9046 13.9717 14.0388 14.0792 14.1465 14.214 14.2546 14.3223 14.3901 14.4308 14.4989 14.567 14.608 14.6763 14.7448 14.786 14.8547 14.9235 14.9649 15.0339 15.1031 15.1447 15.214 15.2836 15.3253 15.3951 15.465 15.507 15.5771 15.6473 15.6895 15.7599 15.8305 15.873 15.9438 16.0147 16.0574 16.1285 16.1999 16.2427 16.3143 16.386 16.4291 16.501 16.573 16.6164 16.6887 16.7611 16.8046 16.8773 16.9501 16.9939 17.067 17.1402 17.1842 17.2576 17.3312 17.3755 17.4493 17.5233 17.5678 17.642 17.7164 17.7611 17.8358 17.9106 17.9555 18.0306 18.1058 18.151 18.2265 18.3021 18.3475 18.4234 18.4995 18.5452 18.6214 18.6979 18.7439 18.8206 18.8975 18.9437 19.0208 19.0981 19.1446 19.2222 19.2999 19.3467 19.4247 19.5029 19.5499 19.6283 19.707 19.7542 19.8332 19.9122 19.9598 20.0391 20.1187 20.1665 20.2463 20.3263 20.3744 20.4547 20.5352 20.5835 20.6643 20.7453 20.7939 20.8751 20.9566 21 0.549643 0.675032 0.801207 0.928176 1.05595 1.18454 1.31396 1.44421 1.57531 1.70727 1.8401 1.97381 2.10841 2.24392 2.38034 2.49015 2.62826 2.76732 2.87927 3.02008 3.16188 3.27605 3.41967 3.56432 3.68079 3.82734 3.97496 4.09384 4.24343 4.39414 4.51553 4.6683 4.82223 4.94623 5.10231 5.25961 5.38634 5.54589 5.7067 5.83628 5.99944 6.16393 6.2965 6.46344 6.63178 6.76747 6.93838 7.11075 7.24972 7.42478 7.60138 7.74379 7.92322 8.10426 8.25028 8.4343 8.62001 8.76983 8.95868 9.14931 9.30313 9.49707 9.69289 9.85093 10.0502 10.2515 10.414 10.619 10.8261 10.9933 11.2043 11.4176 11.5898 11.8072 12.0269 12.2044 12.4286 12.6552 12.8384 13.0698 13.3038 13.493 13.732 13.9739 14.1696 14.4168 14.6671 14.8696 15.1257 15.385 15.5949 15.8604 16.1294 16.3473 16.6229 16.9024 17.1288 17.4154 17.7062 17.9419 18.2404 18.5434 18.7891 19.1006 19.4169 19.6736 19.9991 20.33 20.5987 20.9397 21 0.66985 0.795239 0.921414 1.04838 1.17616 1.30475 1.43416 1.56442 1.69552 1.82748 1.9603 2.09401 2.22862 2.36412 2.50055 2.61036 2.74847 2.88753 2.99948 3.14029 3.28209 3.39625 3.53988 3.68453 3.801 3.94755 4.09517 4.21405 4.36364 4.51435 4.63574 4.7885 4.94244 5.06644 5.22252 5.37982 5.50655 5.66609 5.82691 5.95649 6.11965 6.28414 6.41671 6.58365 6.75199 6.88768 7.05859 7.23096 7.36992 7.54499 7.72159 7.86399 8.04343 8.22447 8.37048 8.5545 8.74022 8.89003 9.07888 9.26952 9.42334 9.61727 9.8131 9.97114 10.1704 10.3717 10.5342 10.7392 10.9463 11.1135 11.3245 11.5378 11.71 11.9274 12.1471 12.3246 12.5488 12.7754 12.9586 13.19 13.424 13.6132 13.8522 14.0941 14.2898 14.537 14.7873 14.9898 15.2459 15.5052 15.7151 15.9806 16.2496 16.4675 16.7431 17.0226 17.249 17.5356 17.8264 18.0621 18.3606 18.6636 18.9094 19.2208 19.5371 19.7938 20.1194 20.4502 20.7189 21 0.790461 0.915851 1.04203 1.16899 1.29677 1.42536 1.55478 1.68503 1.81613 1.94809 2.08092 2.21462 2.34923 2.48474 2.62116 2.73097 2.86908 3.00814 3.12009 3.2609 3.4027 3.51686 3.66049 3.80514 3.92161 4.06816 4.21578 4.33466 4.48425 4.63496 4.75635 4.90912 5.06305 5.18705 5.34313 5.50043 5.62716 5.7867 5.94752 6.0771 6.24026 6.40475 6.53732 6.70426 6.8726 7.00829 7.1792 7.35157 7.49054 7.6656 7.8422 7.98461 8.16404 8.34508 8.4911 8.67511 8.86083 9.01065 9.19949 9.39013 9.54395 9.73788 9.93371 10.0917 10.2911 10.4924 10.6549 10.8598 11.0669 11.2342 11.4452 11.6584 11.8306 12.048 12.2677 12.4453 12.6694 12.8961 13.0792 13.3106 13.5446 13.7338 13.9728 14.2147 14.4104 14.6576 14.9079 15.1105 15.3665 15.6258 15.8357 16.1012 16.3702 16.5881 16.8637 17.1432 17.3696 17.6562 17.947 18.1827 18.4812 18.7842 19.03 19.3414 19.6577 19.9144 20.24 20.5708 20.8395 21 0.911479 1.03687 1.16304 1.29001 1.41779 1.54638 1.67579 1.80605 1.93715 2.0691 2.20193 2.33564 2.47025 2.60575 2.74218 2.85199 2.9901 3.12916 3.2411 3.38192 3.52372 3.63788 3.7815 3.92616 4.04263 4.18918 4.3368 4.45568 4.60527 4.75598 4.87737 5.03013 5.18407 5.30807 5.46415 5.62145 5.74818 5.90772 6.06854 6.19812 6.36128 6.52577 6.65834 6.82528 6.99362 7.12931 7.30022 7.47259 7.61155 7.78662 7.96322 8.10562 8.28505 8.4661 8.61211 8.79613 8.98185 9.13166 9.32051 9.51115 9.66496 9.8589 10.0547 10.2128 10.4121 10.6134 10.7759 10.9809 11.188 11.3552 11.5662 11.7794 11.9516 12.169 12.3887 12.5663 12.7904 13.0171 13.2003 13.4316 13.6656 13.8548 14.0939 14.3358 14.5314 14.7786 15.029 15.2315 15.4875 15.7468 15.9567 16.2222 16.4913 16.7091 16.9847 17.2642 17.4906 17.7773 18.068 18.3037 18.6022 18.9052 19.151 19.4624 19.7788 20.0355 20.361 20.6919 20.9605 21 1.03291 1.1583 1.28447 1.41144 1.53922 1.66781 1.79722 1.92747 2.05857 2.19053 2.32336 2.45707 2.59167 2.72718 2.86361 2.97342 3.11153 3.25059 3.36253 3.50334 3.64515 3.75931 3.90293 4.04758 4.16406 4.3106 4.45822 4.5771 4.7267 4.87741 4.99879 5.15156 5.3055 5.4295 5.58558 5.74288 5.86961 6.02915 6.18996 6.31955 6.48271 6.6472 6.77976 6.94671 7.11504 7.25074 7.42164 7.59401 7.73298 7.90805 8.08465 8.22705 8.40648 8.58753 8.73354 8.91756 9.10328 9.25309 9.44194 9.63257 9.78639 9.98033 10.1762 10.3342 10.5335 10.7348 10.8973 11.1023 11.3094 11.4766 11.6876 11.9008 12.0731 12.2904 12.5102 12.6877 12.9118 13.1385 13.3217 13.553 13.7871 13.9763 14.2153 14.4572 14.6528 14.9001 15.1504 15.3529 15.6089 15.8683 16.0782 16.3437 16.6127 16.8305 17.1062 17.3857 17.6121 17.8987 18.1895 18.4251 18.7237 19.0267 19.2724 19.5839 19.9002 20.1569 20.4824 20.8133 21 1.15475 1.28014 1.40631 1.53328 1.66105 1.78965 1.91906 2.04931 2.18041 2.31237 2.4452 2.57891 2.71351 2.84902 2.98545 3.09526 3.23337 3.37243 3.48437 3.62518 3.76699 3.88115 4.02477 4.16942 4.2859 4.43244 4.58006 4.69894 4.84854 4.99925 5.12063 5.2734 5.42734 5.55134 5.70742 5.86472 5.99145 6.15099 6.3118 6.44139 6.60455 6.76904 6.9016 7.06855 7.23688 7.37258 7.54348 7.71585 7.85482 8.02989 8.20649 8.34889 8.52832 8.70937 8.85538 9.0394 9.22512 9.37493 9.56378 9.75441 9.90823 10.1022 10.298 10.456 10.6553 10.8566 11.0191 11.2241 11.4312 11.5984 11.8094 12.0227 12.1949 12.4123 12.632 12.8095 13.0337 13.2603 13.4435 13.6749 13.9089 14.0981 14.3371 14.579 14.7747 15.0219 15.2722 15.4747 15.7308 15.9901 16.2 16.4655 16.7345 16.9524 17.228 17.5075 17.7339 18.0205 18.3113 18.547 18.8455 19.1485 19.3943 19.7057 20.022 20.2787 20.6043 20.9351 21 1.277 1.40239 1.52857 1.65554 1.78331 1.9119 2.04132 2.17157 2.30267 2.43463 2.56746 2.70117 2.83577 2.97128 3.1077 3.21751 3.35562 3.49468 3.60663 3.74744 3.88924 4.00341 4.14703 4.29168 4.40815 4.5547 4.70232 4.8212 4.97079 5.1215 5.24289 5.39566 5.54959 5.67359 5.82967 5.98697 6.1137 6.27324 6.43406 6.56364 6.7268 6.89129 7.02386 7.1908 7.35914 7.49483 7.66574 7.83811 7.97708 8.15214 8.32874 8.47115 8.65058 8.83162 8.97764 9.16166 9.34737 9.49719 9.68603 9.87667 10.0305 10.2244 10.4202 10.5783 10.7776 10.9789 11.1414 11.3464 11.5535 11.7207 11.9317 12.1449 12.3171 12.5345 12.7543 12.9318 13.1559 13.3826 13.5658 13.7971 14.0312 14.2204 14.4594 14.7013 14.8969 15.1442 15.3945 15.597 15.853 16.1124 16.3223 16.5877 16.8568 17.0746 17.3503 17.6297 17.8562 18.1428 18.4336 18.6692 18.9678 19.2708 19.5165 19.828 20.1443 20.401 20.7265 21 1.39967 1.52506 1.65124 1.77821 1.90598 2.03457 2.16399 2.29424 2.42534 2.5573 2.69013 2.82384 2.95844 3.09395 3.23038 3.34018 3.47829 3.61736 3.7293 3.87011 4.01191 4.12608 4.2697 4.41435 4.53083 4.67737 4.82499 4.94387 5.09346 5.24418 5.36556 5.51833 5.67226 5.79626 5.95235 6.10965 6.23638 6.39592 6.55673 6.68631 6.84947 7.01396 7.14653 7.31347 7.48181 7.6175 7.78841 7.96078 8.09975 8.27482 8.45142 8.59382 8.77325 8.95429 9.10031 9.28433 9.47004 9.61986 9.80871 9.99934 10.1532 10.3471 10.5429 10.701 10.9003 11.1016 11.2641 11.4691 11.6762 11.8434 12.0544 12.2676 12.4398 12.6572 12.8769 13.0545 13.2786 13.5053 13.6885 13.9198 14.1538 14.343 14.5821 14.824 15.0196 15.2668 15.5172 15.7197 15.9757 16.235 16.4449 16.7104 16.9795 17.1973 17.4729 17.7524 17.9788 18.2655 18.5562 18.7919 19.0904 19.3934 19.6392 19.9506 20.267 20.5236 20.8492 21 1.52277 1.64816 1.77433 1.9013 2.02908 2.15767 2.28708 2.41734 2.54844 2.68039 2.81322 2.94693 3.08154 3.21704 3.35347 3.46328 3.60139 3.74045 3.85239 3.99321 4.13501 4.24917 4.39279 4.53745 4.65392 4.80047 4.94809 5.06697 5.21656 5.36727 5.48866 5.64142 5.79536 5.91936 6.07544 6.23274 6.35947 6.51901 6.67983 6.80941 6.97257 7.13706 7.26962 7.43657 7.60491 7.7406 7.91151 8.08388 8.22284 8.39791 8.57451 8.71691 8.89634 9.07739 9.2234 9.40742 9.59314 9.74295 9.9318 10.1224 10.2763 10.4702 10.666 10.8241 11.0234 11.2247 11.3872 11.5922 11.7992 11.9665 12.1775 12.3907 12.5629 12.7803 13 13.1776 13.4017 13.6284 13.8115 14.0429 14.2769 14.4661 14.7052 14.9471 15.1427 15.3899 15.6402 15.8428 16.0988 16.3581 16.568 16.8335 17.1025 17.3204 17.596 17.8755 18.1019 18.3886 18.6793 18.915 19.2135 19.5165 19.7623 20.0737 20.3901 20.6467 20.9723 21 1.64629 1.77168 1.89785 2.02482 2.15259 2.28118 2.4106 2.54085 2.67195 2.80391 2.93674 3.07045 3.20505 3.34056 3.47699 3.5868 3.72491 3.86397 3.97591 4.11672 4.25853 4.37269 4.51631 4.66096 4.77744 4.92398 5.0716 5.19048 5.34008 5.49079 5.61217 5.76494 5.91888 6.04288 6.19896 6.35626 6.48299 6.64253 6.80334 6.93293 7.09608 7.26058 7.39314 7.56009 7.72842 7.86411 8.03502 8.20739 8.34636 8.52143 8.69803 8.84043 9.01986 9.20091 9.34692 9.53094 9.71666 9.86647 10.0553 10.246 10.3998 10.5937 10.7895 10.9476 11.1469 11.3482 11.5107 11.7157 11.9228 12.09 12.301 12.5142 12.6864 12.9038 13.1235 13.3011 13.5252 13.7519 13.9351 14.1664 14.4004 14.5896 14.8287 15.0706 15.2662 15.5134 15.7638 15.9663 16.2223 16.4817 16.6915 16.957 17.2261 17.4439 17.7196 17.999 18.2254 18.5121 18.8028 19.0385 19.337 19.6401 19.8858 20.1972 20.5136 20.7703 21 1.77023 1.89562 2.02179 2.14876 2.27654 2.40513 2.53454 2.6648 2.7959 2.92786 3.06068 3.19439 3.329 3.46451 3.60093 3.71074 3.84885 3.98791 4.09986 4.24067 4.38247 4.49663 4.64026 4.78491 4.90138 5.04793 5.19555 5.31443 5.46402 5.61473 5.73612 5.88888 6.04282 6.16682 6.3229 6.4802 6.60693 6.76647 6.92729 7.05687 7.22003 7.38452 7.51709 7.68403 7.85237 7.98806 8.15897 8.33134 8.4703 8.64537 8.82197 8.96437 9.14381 9.32485 9.47086 9.65488 9.8406 9.99041 10.1793 10.3699 10.5237 10.7177 10.9135 11.0715 11.2708 11.4721 11.6346 11.8396 12.0467 12.2139 12.4249 12.6382 12.8104 13.0277 13.2475 13.425 13.6492 13.8758 14.059 14.2904 14.5244 14.7136 14.9526 15.1945 15.3902 15.6374 15.8877 16.0902 16.3463 16.6056 16.8155 17.081 17.35 17.5678 17.8435 18.123 18.3494 18.636 18.9268 19.1625 19.461 19.764 20.0097 20.3212 20.6375 20.8942 21 1.8946 2.01999 2.14617 2.27314 2.40091 2.5295 2.65892 2.78917 2.92027 3.05223 3.18506 3.31877 3.45337 3.58888 3.7253 3.83511 3.97322 4.11229 4.22423 4.36504 4.50684 4.62101 4.76463 4.90928 5.02576 5.1723 5.31992 5.4388 5.58839 5.7391 5.86049 6.01326 6.16719 6.29119 6.44728 6.60458 6.73131 6.89085 7.05166 7.18124 7.3444 7.50889 7.64146 7.8084 7.97674 8.11243 8.28334 8.45571 8.59468 8.76974 8.94635 9.08875 9.26818 9.44922 9.59524 9.77926 9.96497 10.1148 10.3036 10.4943 10.6481 10.842 11.0379 11.1959 11.3952 11.5965 11.759 11.964 12.1711 12.3383 12.5493 12.7625 12.9348 13.1521 13.3719 13.5494 13.7735 14 14.1834 14.4147 14.6488 14.838 15.077 15.3189 15.5145 15.7618 16.0121 16.2146 16.4706 16.73 16.9399 17.2054 17.4744 17.6922 17.9679 18.2474 18.4738 18.7604 19.0512 19.2868 19.5854 19.8884 20.1341 20.4456 20.7619 21 2.01941 2.1448 2.27097 2.39794 2.52572 2.65431 2.78372 2.91398 3.04508 3.17704 3.30986 3.44357 3.57818 3.71369 3.85011 3.95992 4.09803 4.23709 4.34904 4.48985 4.63165 4.74581 4.88944 5.03409 5.15056 5.29711 5.44473 5.56361 5.7132 5.86391 5.9853 6.13807 6.292 6.416 6.57208 6.72938 6.85611 7.01565 7.17647 7.30605 7.46921 7.6337 7.76627 7.93321 8.10155 8.23724 8.40815 8.58052 8.71948 8.89455 9.07115 9.21355 9.39299 9.57403 9.72004 9.90406 10.0898 10.2396 10.4284 10.6191 10.7729 10.9668 11.1627 11.3207 11.52 11.7213 11.8838 12.0888 12.2959 12.4631 12.6741 12.8873 13.0596 13.2769 13.4967 13.6742 13.8983 14.125 14.3082 14.5395 14.7736 14.9628 15.2018 15.4437 15.6393 15.8866 16.1369 16.3394 16.5954 16.8548 17.0647 17.3302 17.5992 17.817 18.0927 18.3722 18.5986 18.8852 19.176 19.4116 19.7102 20.0132 20.2589 20.5704 20.8867 21 2.14465 2.27004 2.39622 2.52319 2.65096 2.77955 2.90897 3.03922 3.17032 3.30228 3.43511 3.56882 3.70342 3.83893 3.97535 4.08516 4.22327 4.36233 4.47428 4.61509 4.75689 4.87106 5.01468 5.15933 5.2758 5.42235 5.56997 5.68885 5.83844 5.98915 6.11054 6.26331 6.41724 6.54124 6.69732 6.85462 6.98135 7.1409 7.30171 7.43129 7.59445 7.75894 7.89151 8.05845 8.22679 8.36248 8.53339 8.70576 8.84473 9.01979 9.19639 9.3388 9.51823 9.69927 9.84529 10.0293 10.215 10.3648 10.5537 10.7443 10.8981 11.0921 11.2879 11.4459 11.6452 11.8465 12.009 12.214 12.4211 12.5884 12.7993 13.0126 13.1848 13.4022 13.6219 13.7994 14.0236 14.2502 14.4334 14.6648 14.8988 15.088 15.327 15.5689 15.7646 16.0118 16.2621 16.4646 16.7207 16.98 17.1899 17.4554 17.7244 17.9423 18.2179 18.4974 18.7238 19.0104 19.3012 19.5369 19.8354 20.1384 20.3842 20.6956 21 2.27033 2.39572 2.5219 2.64887 2.77664 2.90523 3.03465 3.1649 3.296 3.42796 3.56079 3.6945 3.8291 3.96461 4.10103 4.21084 4.34895 4.48801 4.59996 4.74077 4.88257 4.99674 5.14036 5.28501 5.40149 5.54803 5.69565 5.81453 5.96412 6.11483 6.23622 6.38899 6.54292 6.66692 6.823 6.9803 7.10703 7.26658 7.42739 7.55697 7.72013 7.88462 8.01719 8.18413 8.35247 8.48816 8.65907 8.83144 8.97041 9.14547 9.32207 9.46448 9.64391 9.82495 9.97097 10.155 10.3407 10.4905 10.6794 10.87 11.0238 11.2178 11.4136 11.5716 11.7709 11.9722 12.1347 12.3397 12.5468 12.714 12.925 13.1383 13.3105 13.5279 13.7476 13.9251 14.1493 14.3759 14.5591 14.7905 15.0245 15.2137 15.4527 15.6946 15.8903 16.1375 16.3878 16.5903 16.8464 17.1057 17.3156 17.5811 17.8501 18.0679 18.3436 18.6231 18.8495 19.1361 19.4269 19.6626 19.9611 20.2641 20.5098 20.8213 21 2.39646 2.52185 2.64802 2.77499 2.90276 3.03135 3.16077 3.29102 3.42212 3.55408 3.68691 3.82062 3.95522 4.09073 4.22716 4.33697 4.47508 4.61414 4.72608 4.86689 5.0087 5.12286 5.26648 5.41113 5.52761 5.67415 5.82177 5.94065 6.09025 6.24096 6.36234 6.51511 6.66905 6.79305 6.94913 7.10643 7.23316 7.3927 7.55351 7.6831 7.84625 8.01075 8.14331 8.31026 8.47859 8.61428 8.78519 8.95756 9.09653 9.2716 9.4482 9.5906 9.77003 9.95108 10.0971 10.2811 10.4668 10.6166 10.8055 10.9961 11.1499 11.3439 11.5397 11.6977 11.8971 12.0984 12.2609 12.4658 12.6729 12.8402 13.0512 13.2644 13.4366 13.654 13.8737 14.0512 14.2754 14.502 14.6852 14.9166 15.1506 15.3398 15.5788 15.8207 16.0164 16.2636 16.5139 16.7164 16.9725 17.2318 17.4417 17.7072 17.9762 18.1941 18.4697 18.7492 18.9756 19.2622 19.553 19.7887 20.0872 20.3902 20.636 20.9474 21 2.52302 2.64841 2.77459 2.90156 3.02933 3.15792 3.28734 3.41759 3.54869 3.68065 3.81348 3.94719 4.08179 4.2173 4.35372 4.46353 4.60164 4.7407 4.85265 4.99346 5.13526 5.24943 5.39305 5.5377 5.65418 5.80072 5.94834 6.06722 6.21681 6.36752 6.48891 6.64168 6.79561 6.91961 7.07569 7.23299 7.35972 7.51927 7.68008 7.80966 7.97282 8.13731 8.26988 8.43682 8.60516 8.74085 8.91176 9.08413 9.2231 9.39816 9.57476 9.71717 9.8966 10.0776 10.2237 10.4077 10.5934 10.7432 10.9321 11.1227 11.2765 11.4704 11.6663 11.8243 12.0236 12.2249 12.3874 12.5924 12.7995 12.9667 13.1777 13.3909 13.5632 13.7805 14 14.1778 14.402 14.6286 14.8118 15.0431 15.2772 15.4664 15.7054 15.9473 16.1429 16.3902 16.6405 16.843 17.0991 17.3584 17.5683 17.8338 18.1028 18.3206 18.5963 18.8758 19.1022 19.3888 19.6796 19.9153 20.2138 20.5168 20.7625 21 2.65004 2.77543 2.9016 3.02857 3.15635 3.28494 3.41435 3.54461 3.67571 3.80766 3.94049 4.0742 4.20881 4.34431 4.48074 4.59055 4.72866 4.86772 4.97966 5.12048 5.26228 5.37644 5.52006 5.66472 5.78119 5.92774 6.07536 6.19424 6.34383 6.49454 6.61593 6.76869 6.92263 7.04663 7.20271 7.36001 7.48674 7.64628 7.8071 7.93668 8.09984 8.26433 8.39689 8.56384 8.73218 8.86787 9.03878 9.21115 9.35011 9.52518 9.70178 9.84418 10.0236 10.2047 10.3507 10.5347 10.7204 10.8702 11.0591 11.2497 11.4035 11.5975 11.7933 11.9513 12.1506 12.3519 12.5144 12.7194 12.9265 13.0937 13.3047 13.518 13.6902 13.9076 14.1273 14.3048 14.529 14.7556 14.9388 15.1702 15.4042 15.5934 15.8324 16.0743 16.27 16.5172 16.7675 16.97 17.2261 17.4854 17.6953 17.9608 18.2298 18.4477 18.7233 19.0028 19.2292 19.5158 19.8066 20.0423 20.3408 20.6438 20.8895 21 2.77751 2.90289 3.02907 3.15604 3.28381 3.4124 3.54182 3.67207 3.80317 3.93513 4.06796 4.20167 4.33627 4.47178 4.60821 4.71802 4.85612 4.99519 5.10713 5.24794 5.38974 5.50391 5.64753 5.79218 5.90866 6.0552 6.20282 6.3217 6.47129 6.62201 6.74339 6.89616 7.0501 7.1741 7.33018 7.48748 7.61421 7.77375 7.93456 8.06415 8.2273 8.39179 8.52436 8.69131 8.85964 8.99533 9.16624 9.33861 9.47758 9.65265 9.82925 9.97165 10.1511 10.3321 10.4781 10.6622 10.8479 10.9977 11.1865 11.3772 11.531 11.7249 11.9208 12.0788 12.2781 12.4794 12.6419 12.8469 13.054 13.2212 13.4322 13.6454 13.8177 14.035 14.2548 14.4323 14.6564 14.8831 15.0663 15.2976 15.5317 15.7209 15.9599 16.2018 16.3974 16.6447 16.895 17.0975 17.3535 17.6129 17.8228 18.0883 18.3573 18.5751 18.8508 19.1303 19.3567 19.6433 19.9341 20.1697 20.4683 20.7713 21 2.90543 3.03082 3.15699 3.28396 3.41173 3.54032 3.66974 3.79999 3.93109 4.06305 4.19588 4.32959 4.46419 4.5997 4.73613 4.84594 4.98405 5.12311 5.23505 5.37586 5.51767 5.63183 5.77545 5.9201 6.03658 6.18312 6.33074 6.44962 6.59922 6.74993 6.87131 7.02408 7.17802 7.30202 7.4581 7.6154 7.74213 7.90167 8.06248 8.19207 8.35523 8.51972 8.65228 8.81923 8.98756 9.12326 9.29416 9.46653 9.6055 9.78057 9.95717 10.0996 10.279 10.46 10.6061 10.7901 10.9758 11.1256 11.3145 11.5051 11.6589 11.8529 12.0487 12.2067 12.406 12.6073 12.7698 12.9748 13.1819 13.3491 13.5601 13.7734 13.9456 14.1629 14.3827 14.5602 14.7844 15.011 15.1942 15.4255 15.6596 15.8488 16.0878 16.3297 16.5253 16.7726 17.0229 17.2254 17.4815 17.7408 17.9507 18.2162 18.4852 18.703 18.9787 19.2582 19.4846 19.7712 20.062 20.2977 20.5962 20.8992 21 3.03381 3.15919 3.28537 3.41234 3.54011 3.6687 3.79812 3.92837 4.05947 4.19143 4.32426 4.45797 4.59257 4.72808 4.86451 4.97432 5.11242 5.25149 5.36343 5.50424 5.64604 5.76021 5.90383 6.04848 6.16496 6.3115 6.45912 6.578 6.72759 6.87831 6.99969 7.15277 7.30671 7.4304 7.58648 7.74378 7.87051 8.03005 8.19086 8.32045 8.4836 8.64809 8.78066 8.9476 9.11594 9.25163 9.42254 9.59491 9.73388 9.90895 10.0855 10.2279 10.4074 10.5884 10.7344 10.9185 11.1042 11.254 11.4428 11.6335 11.7873 11.9812 12.1771 12.3351 12.5344 12.7357 12.8982 13.1032 13.3103 13.4775 13.6885 13.9017 14.074 14.2913 14.5111 14.6886 14.9127 15.1394 15.3226 15.5539 15.788 15.9772 16.2162 16.4581 16.6537 16.901 17.1513 17.3538 17.6098 17.8692 18.0791 18.3446 18.6136 18.8314 19.1071 19.3866 19.613 19.8996 20.1904 20.426 20.7246 21 3.16265 3.28803 3.41421 3.54118 3.66895 3.79754 3.92696 4.05721 4.18831 4.32027 4.4531 4.58681 4.72141 4.85692 4.99335 5.10316 5.24126 5.38033 5.49227 5.63308 5.77488 5.88905 6.03267 6.17732 6.2938 6.44034 6.58796 6.70684 6.85643 7.00715 7.12853 7.2813 7.43523 7.55923 7.71532 7.87262 7.99935 8.15889 8.3197 8.44928 8.61244 8.77693 8.9095 9.07644 9.24478 9.38047 9.55138 9.72375 9.86272 10.0378 10.2144 10.3568 10.5362 10.7173 10.8633 11.0473 11.233 11.3828 11.5717 11.7623 11.9161 12.1101 12.3059 12.4639 12.6632 12.8645 13.027 13.232 13.4391 13.6063 13.8173 14.0306 14.2028 14.4202 14.6399 14.8174 15.0416 15.2682 15.4514 15.6828 15.9168 16.106 16.345 16.5869 16.7826 17.0298 17.2801 17.4826 17.7387 17.998 18.2079 18.4734 18.7424 18.9603 19.2359 19.5154 19.7418 20.0284 20.3192 20.5549 20.8534 21 3.29195 3.41734 3.54351 3.67048 3.79826 3.92685 4.05626 4.18652 4.31762 4.44957 4.5824 4.71611 4.85072 4.98622 5.12265 5.23246 5.37057 5.50963 5.62157 5.76239 5.90419 6.01835 6.16197 6.30663 6.4231 6.56965 6.71727 6.83615 6.98574 7.13645 7.25784 7.4106 7.56454 7.68854 7.84462 8.00192 8.12865 8.28819 8.44901 8.57859 8.74175 8.90624 9.0388 9.20575 9.37409 9.50978 9.68069 9.85306 9.99202 10.1671 10.3437 10.4861 10.6655 10.8466 10.9926 11.1766 11.3623 11.5121 11.701 11.8916 12.0454 12.2394 12.4352 12.5932 12.7925 12.9938 13.1563 13.3613 13.5684 13.7356 13.9466 14.1599 14.3321 14.5495 14.7692 14.9467 15.1709 15.3975 15.5807 15.8121 16.0461 16.2353 16.4743 16.7162 16.9119 17.1591 17.4094 17.6119 17.868 18.1273 18.3372 18.6027 18.8717 19.0896 19.3652 19.6447 19.8711 20.1577 20.4485 20.6842 20.9827 21 3.42172 3.54711 3.67328 3.80025 3.92803 4.05662 4.18603 4.31629 4.44739 4.57935 4.71217 4.84588 4.98049 5.116 5.25242 5.36223 5.50034 5.6394 5.75135 5.89216 6.03396 6.14812 6.29175 6.4364 6.55287 6.69942 6.84704 6.96592 7.11551 7.26622 7.38761 7.54038 7.69431 7.81831 7.97439 8.13169 8.25842 8.41796 8.57878 8.70836 8.87152 9.03601 9.16858 9.33552 9.50386 9.63955 9.81046 9.98283 10.1218 10.2969 10.4735 10.6159 10.7953 10.9763 11.1224 11.3064 11.4921 11.6419 11.8308 12.0214 12.1752 12.3691 12.565 12.723 12.9223 13.1236 13.2861 13.4911 13.6982 13.8654 14.0764 14.2896 14.4619 14.6792 14.899 15.0765 15.3007 15.5273 15.7105 15.9418 16.1759 16.3651 16.6041 16.846 17.0416 17.2889 17.5392 17.7417 17.9978 18.2571 18.467 18.7325 19.0015 19.2193 19.495 19.7745 20.0009 20.2875 20.5783 20.814 21 3.55196 3.67735 3.80353 3.9305 4.05827 4.18686 4.31628 4.44653 4.57763 4.70959 4.84242 4.97613 5.11073 5.24624 5.38266 5.49247 5.63058 5.76964 5.88159 6.0224 6.1642 6.27837 6.42199 6.56664 6.68312 6.82966 6.97728 7.09616 7.24575 7.39646 7.51785 7.67062 7.82455 7.94855 8.10463 8.26193 8.38866 8.54821 8.70902 8.8386 9.00176 9.16625 9.29882 9.46576 9.6341 9.76979 9.9407 10.1131 10.252 10.4271 10.6037 10.7461 10.9255 11.1066 11.2526 11.4366 11.6223 11.7721 11.961 12.1516 12.3054 12.4994 12.6952 12.8532 13.0526 13.2539 13.4164 13.6213 13.8284 13.9957 14.2067 14.4199 14.5921 14.8095 15.0292 15.2068 15.4309 15.6576 15.8407 16.0721 16.3061 16.4953 16.7344 16.9763 17.1719 17.4191 17.6694 17.872 18.128 18.3873 18.5972 18.8627 19.1317 19.3496 19.6252 19.9047 20.1311 20.4178 20.7085 20.9442 21 3.68268 3.80807 3.93424 4.06121 4.18899 4.31758 4.44699 4.57725 4.70835 4.84031 4.97313 5.10684 5.24145 5.37696 5.51338 5.62319 5.7613 5.90036 6.01231 6.15312 6.29492 6.40908 6.55271 6.69736 6.81383 6.96038 7.108 7.22688 7.37647 7.52718 7.64857 7.80133 7.95527 8.07927 8.23535 8.39265 8.51938 8.67892 8.83974 8.96932 9.13248 9.29697 9.42954 9.59648 9.76482 9.90051 10.0714 10.2438 10.3828 10.5578 10.7344 10.8768 11.0563 11.2373 11.3833 11.5673 11.753 11.9029 12.0917 12.2823 12.4362 12.6301 12.8259 12.984 13.1833 13.3846 13.5471 13.7521 13.9592 14.1264 14.3374 14.5506 14.7228 14.9402 15.1599 15.3375 15.5616 15.7883 15.9715 16.2028 16.4368 16.626 16.8651 17.107 17.3026 17.5498 17.8002 18.0027 18.2587 18.518 18.7279 18.9934 19.2625 19.4803 19.756 20.0354 20.2618 20.5485 20.8392 21 3.81388 3.93926 4.06544 4.19241 4.32018 4.44877 4.57819 4.70844 4.83954 4.9715 5.10433 5.23804 5.37264 5.50815 5.64458 5.75439 5.89249 6.03156 6.1435 6.28431 6.42611 6.54028 6.6839 6.82855 6.94503 7.09157 7.23919 7.35807 7.50766 7.65838 7.77976 7.93253 8.08647 8.21047 8.36655 8.52385 8.65058 8.81012 8.97093 9.10052 9.26367 9.42816 9.56073 9.72768 9.89601 10.0317 10.2026 10.375 10.5139 10.689 10.8656 11.008 11.1875 11.3685 11.5145 11.6985 11.8842 12.0341 12.2229 12.4135 12.5674 12.7613 12.9571 13.1152 13.3145 13.5158 13.6783 13.8833 14.0904 14.2576 14.4686 14.6818 14.854 15.0714 15.2911 15.4687 15.6928 15.9195 16.1027 16.334 16.568 16.7572 16.9963 17.2382 17.4338 17.681 17.9314 18.1339 18.3899 18.6492 18.8591 19.1246 19.3937 19.6115 19.8871 20.1666 20.393 20.6797 20.9704 21 3.94555 4.07094 4.19712 4.32409 4.45186 4.58045 4.70987 4.84012 4.97122 5.10318 5.23601 5.36972 5.50432 5.63983 5.77625 5.88606 6.02417 6.16323 6.27518 6.41599 6.55779 6.67196 6.81558 6.96023 7.0767 7.22325 7.37087 7.48975 7.63934 7.79005 7.91144 8.06421 8.21814 8.34214 8.49822 8.65552 8.78225 8.94179 9.10261 9.23219 9.39535 9.55984 9.69241 9.85935 10.0277 10.1634 10.3343 10.5067 10.6456 10.8207 10.9973 11.1397 11.3191 11.5002 11.6462 11.8302 12.0159 12.1657 12.3546 12.5452 12.699 12.893 13.0888 13.2468 13.4461 13.6474 13.8099 14.0149 14.222 14.3892 14.6002 14.8135 14.9857 15.2031 15.4228 15.6003 15.8245 16.0511 16.2343 16.4657 16.6997 16.8889 17.1279 17.3698 17.5655 17.8127 18.063 18.2655 18.5216 18.7809 18.9908 19.2563 19.5253 19.7432 20.0188 20.2983 20.5247 20.8113 21 4.07771 4.2031 4.32928 4.45625 4.58402 4.71261 4.84203 4.97228 5.10338 5.23534 5.36817 5.50188 5.63648 5.77199 5.90841 6.01822 6.15633 6.29539 6.40734 6.54815 6.68995 6.80412 6.94774 7.09239 7.20887 7.35541 7.50303 7.62191 7.7715 7.92221 8.0436 8.19637 8.3503 8.4743 8.63038 8.78768 8.91441 9.07396 9.23477 9.36435 9.52751 9.692 9.82457 9.99151 10.1599 10.2955 10.4665 10.6388 10.7778 10.9529 11.1295 11.2719 11.4513 11.6323 11.7783 11.9624 12.1481 12.2979 12.4867 12.6774 12.8312 13.0251 13.221 13.379 13.5783 13.7796 13.9421 14.1471 14.3542 14.5214 14.7324 14.9456 15.1179 15.3352 15.555 15.7325 15.9566 16.1833 16.3665 16.5978 16.8319 17.0211 17.2601 17.502 17.6976 17.9449 18.1952 18.3977 18.6537 18.9131 19.123 19.3885 19.6575 19.8753 20.151 20.4305 20.6569 20.9435 21 4.21036 4.33575 4.46193 4.5889 4.71667 4.84526 4.97468 5.10493 5.23603 5.36799 5.50082 5.63453 5.76913 5.90464 6.04106 6.15087 6.28898 6.42804 6.53999 6.6808 6.8226 6.93677 7.08039 7.22504 7.34152 7.48806 7.63568 7.75456 7.90415 8.05486 8.17625 8.32902 8.48295 8.60695 8.76303 8.92033 9.04706 9.20661 9.36742 9.497 9.66016 9.82465 9.95722 10.1242 10.2925 10.4282 10.5991 10.7715 10.9104 11.0855 11.2621 11.4045 11.5839 11.765 11.911 12.095 12.2807 12.4305 12.6194 12.81 12.9638 13.1578 13.3536 13.5116 13.711 13.9123 14.0748 14.2797 14.4868 14.6541 14.8651 15.0783 15.2505 15.4679 15.6876 15.8652 16.0893 16.316 16.4991 16.7305 16.9645 17.1537 17.3928 17.6347 17.8303 18.0775 18.3278 18.5304 18.7864 19.0457 19.2556 19.5211 19.7901 20.008 20.2836 20.5631 20.7895 21 4.34351 4.4689 4.59507 4.72204 4.84981 4.9784 5.10782 5.23807 5.36917 5.50113 5.63396 5.76767 5.90227 6.03778 6.17421 6.28402 6.42213 6.56119 6.67313 6.81394 6.95575 7.06991 7.21353 7.35818 7.47466 7.6212 7.76882 7.8877 8.0373 8.18801 8.30939 8.46216 8.6161 8.7401 8.89618 9.05348 9.18021 9.33975 9.50056 9.63015 9.7933 9.9578 10.0904 10.2573 10.4256 10.5613 10.7322 10.9046 11.0436 11.2186 11.3952 11.5377 11.7171 11.8981 12.0441 12.2282 12.4139 12.5637 12.7525 12.9432 13.097 13.2909 13.4868 13.6448 13.8441 14.0454 14.2079 14.4129 14.62 14.7872 14.9982 15.2114 15.3837 15.601 15.8208 15.9983 16.2224 16.4491 16.6323 16.8636 17.0977 17.2869 17.5259 17.7678 17.9634 18.2107 18.461 18.6635 18.9195 19.1789 19.3888 19.6543 19.9233 20.1411 20.4168 20.6963 20.9227 21 4.47714 4.60253 4.72871 4.85568 4.98345 5.11204 5.24146 5.37171 5.50281 5.63477 5.7676 5.90131 6.03591 6.17142 6.30784 6.41765 6.55576 6.69483 6.80677 6.94758 7.08938 7.20355 7.34717 7.49182 7.6083 7.75484 7.90246 8.02134 8.17093 8.32164 8.44303 8.5958 8.74973 8.87373 9.02982 9.18712 9.31385 9.47339 9.6342 9.76378 9.92694 10.0914 10.224 10.3909 10.5593 10.695 10.8659 11.0383 11.1772 11.3523 11.5289 11.6713 11.8507 12.0318 12.1778 12.3618 12.5475 12.6973 12.8862 13.0768 13.2306 13.4246 13.6204 13.7784 13.9777 14.179 14.3415 14.5465 14.7536 14.9208 15.1318 15.3451 15.5173 15.7347 15.9544 16.1319 16.3561 16.5827 16.7659 16.9973 17.2313 17.4205 17.6595 17.9014 18.0971 18.3443 18.5946 18.7971 19.0532 19.3125 19.5224 19.7879 20.0569 20.2748 20.5504 20.8299 21 4.61128 4.73667 4.86285 4.98982 5.11759 5.24618 5.3756 5.50585 5.63695 5.76891 5.90174 6.03545 6.17005 6.30556 6.44198 6.55179 6.6899 6.82896 6.94091 7.08172 7.22352 7.33769 7.48131 7.62596 7.74243 7.88898 8.0366 8.15548 8.30507 8.45578 8.57717 8.72994 8.88387 9.00787 9.16395 9.32125 9.44798 9.60752 9.76834 9.89792 10.0611 10.2256 10.3581 10.5251 10.6934 10.8291 11 1