<?xml version="1.0"?><VTKFile type="PolyData" version="0.1" byte_order="LittleEndian">
<PolyData>
<Piece NumberOfLines="276" NumberOfPoints="43698">
<PointData Scalars=" PointData">
<DataArray type="Float32" Name="time" NumberOfComponents="1" format="ascii" >
0 0.0454834 0.0910244 0.136623 0.18228 0.227996 0.273769 0.301261 0.347128 0.393054 0.420638 0.466658 0.512737 0.540413 0.586587 0.63282 0.660589 0.706918 0.753307 0.781169 0.827654 0.8742 0.902156 0.948798 0.995501 1.02355 1.07035 1.11721 1.14536 1.19232 1.23934 1.26758 1.3147 1.36188 1.39022 1.4375 1.48485 1.51328 1.56073 1.60824 1.63677 1.68438 1.73205 1.76068 1.80845 1.85629 1.88502 1.93296 1.98096 2.00979 2.0579 2.10607 2.135 2.18328 2.23162 2.26065 2.30909 2.3576 2.38674 2.43535 2.48403 2.51327 2.56206 2.61091 2.64025 2.68921 2.73824 2.76768 2.81682 2.86602 2.89557 2.94488 2.99426 3.02391 3.0734 3.12295 3.15272 3.20238 3.25211 3.28199 3.33183 3.38174 3.41172 3.46175 3.51184 3.54193 3.59213 3.64241 3.67261 3.723 3.77346 3.80377 3.85434 3.90498 3.93541 3.98617 4.037 4.06753 4.11848 4.1695 4.20014 4.25128 4.30249 4.33325 4.38457 4.43597 4.46685 4.51836 4.56996 4.60095 4.65266 4.70444 4.73555 4.78745 4.83943 4.87066 4.92276 4.97493 5.00628 5.05858 5.11095 5.14241 5.19491 5.24748 5.27906 5.33176 5.38454 5.41624 5.46914 5.52212 5.55394 5.60704 5.66023 5.69217 5.74548 5.79887 5.83094 5.88445 5.93805 5.97025 6.02397 6.07777 6.11009 6.16403 6.21804 6.25049 6.30463 6.35886 6.39144 6.44579 6.50023 6.53294 6.58751 6.64217 6.675 6.72979 6.78467 6.81763 6.87264 6.92773 6.96083 7.01606 7.07137 7.1046 7.16005 7.21558 7.24895 7.30462 7.36038 7.39388 7.44978 7.50577 7.5394 7.59553 7.65174 7.68551 7.74187 7.79831 7.83222 7.88881 7.94548 7.97953 8.03635 8.09326 8.12745 8.18451 8.24165 8.27599 8.33328 8.39066 8.42513 8.48266 8.54029 8.57491 8.63268 8.69054 8.72531 8.78332 8.84143 8.87634 8.9346 8.99295 9.02801 9.08652 9.14512 9.18032 9.23908 9.29793 9.33329 9.3923 9.4514 9.48691 9.54617 9.60553 9.64119 9.7007 9.76032 9.79613 9.85591 9.91578 9.95175 10.0118 10.0719 10.108 10.1683 10.2287 10.265 10.3256 10.3862 10.4227 10.4835 10.5445 10.5811 10.6422 10.7034 10.7401 10.8015 10.863 10.8999 10.9615 11.0233 11.0604 11.1223 11.1843 11.2216 11.2838 11.3461 11.3835 11.446 11.5086 11.5462 11.609 11.6719 11.7096 11.7727 11.8358 11.8738 11.9371 12.0006 12.0387 12.1023 12.1661 12.2044 12.2683 12.3324 12.3708 12.4351 12.4994 12.5381 12.6026 12.6672 12.7061 12.7709 12.8358 12.8749 12.94 13.0052 13.0444 13.1099 13.1754 13.2148 13.2806 13.3465 13.3861 13.4521 13.5183 13.5581 13.6245 13.691 13.7309 13.7977 13.8645 13.9046 13.9717 14.0388 14.0792 14.1465 14.214 14.2546 14.3223 14.3901 14.4308 14.4989 14.567 14.608 14.6763 14.7448 14.786 14.8547 14.9235 14.9649 15.0339 15.1031 15.1447 15.214 15.2836 15.3253 15.3951 15.465 15.507 15.5771 15.6473 15.6895 15.7599 15.8305 15.873 15.9438 16.0147 16.0574 16.1285 16.1999 16.2427 16.3143 16.386 16.4291 16.501 16.573 16.6164 16.6887 16.7611 16.8046 16.8773 16.9501 16.9939 17.067 17.1402 17.1842 17.2576 17.3312 17.3755 17.4493 17.5233 17.5678 17.642 17.7164 17.7611 17.8358 17.9106 17.9555 18.0306 18.1058 18.151 18.2265 18.3021 18.3475 18.4234 18.4995 18.5452 18.6214 18.6979 18.7439 18.8206 18.8975 18.9437 19.0208 19.0981 19.1446 19.2222 19.2999 19.3467 19.4247 19.5029 19.5499 19.6283 19.707 19.7542 19.8332 19.9122 19.9598 20.0391 20.1187 20.1665 20.2463 20.3263 20.3744 20.4547 20.5352 20.5835 20.6643 20.7453 20.7939 20.8751 20.9566 21.0055 21.0872 21.1691 21.2184 21.3006 21.3829 21.4325 21.5152 21.5981 21.6479 21.7311 21.8145 21.8646 21.9483 22.0322 22.0826 22.1668 22.2512 22.302 22.3867 22.4716 22.5227 22.6079 22.6934 22.7448 22.8305 22.9165 22.9682 23.0545 23.1411 23.1931 23.2799 23.367 23.4193 23.5068 23.5944 23.6471 23.735 23.8232 23.8762 23.9647 24.0535 24.1069 24.196 24.2853 24.339 24.4287 24.5186 24.5726 24.6629 24.7534 24.8078 24.8987 24.9898 25.0445 25.136 25.2277 25.2828 25.3749 25.4672 25.5227 25.6154 25.7083 25.7642 25.8575 25.9511 26.0074 26.1013 26.1955 26.2522 26.3468 26.4416 26.4986 26.5939 26.6894 26.7468 26.8427 26.9389 26.9967 27.0933 27.1902 27.2484 27.3457 27.4432 27.5018 27.5998 27.698 27.7571 27.8558 27.9547 28.0142 28.1135 28.2132 28.2731 28.3732 28.4736 28.5339 28.6347 28.7358 28.7966 28.8982 29.0001 29.0613 29.1636 29.2662 29.3279 29.431 29.5344 29.5966 29.7004 29.8046 29.8672 29.9718 30.0768 30.1399 30.2454 30.3511 30.4147 30.521 30.6275 30.6916 30.7987 30.9061 30.9707 31.0786 31.1869 31.252 31.3607 31.4698 31.5354 31.6451 31.755 31.8212 31.9317 32.0425 32.1092 32.2206 32.3323 32.3996 32.5119 32.6245 32.6923 32.8055 32.9191 32.9874 33.1016 33.2161 33.285 33.4001 33.5156 33.5851 33.7012 33.8176 33.8877 34.0048 34.1222 34.1929 34.311 34.4294 34.5007 34.6198 34.7393 34.8111 34.9313 35.0518 35.1243 35.2455 35.3671 35.4402 35.5625 35.6852 35.759 35.8823 36.0061 36.0806 36.205 36.3299 36.4051 36.5306 36.6567 36.7325 36.8593 36.9865 37.063 37.1909 37.3193 37.3965 37.5257 37.6552 37.7332 37.8636 37.9944 38.0731 38.2047 38.3367 38.4162 38.549 38.6824 38.7626 38.8968 39.0314 39.1124 39.2479 39.3839 39.4657 39.6025 39.7398 39.8225 39.9606 40.0993 40.1828 40.3224 40.4625 40.5468 40.6878 40.8293 40.9145 41.057 41.2 41.2861 41.43 41.5745 41.6615 41.8069 41.953 42.0409 42.1879 42.3355 42.4243 42.5729 42.7221 42.8119 42.9621 43.113 43.2038 43.3556 43.5081 43.5999 43.7535 43.9077 44.0005 44.1558 44.3117 44.4056 44.5626 44.7203 44.8153 44.9741 45.1337 45.2298 45.3905 45.5519 45.6491 45.8116 45.975 46.0733 46.2378 46.4031 46.5026 46.6692 46.8364 46.9372 47.1057 47.2751 47.377 47.5477 47.7191 47.8224 47.9951 48.1687 48.2733 48.4482 48.624 48.7299 48.9071 49.0852 49.1925 49.372 49.5524 49.661 49.8429 50.0257 50.1358 50.3201 50.5054 50.617 50.8037 50.9915 51.1046 51.294 51.4844 51.5991 51.791 51.9841 52.1004 52.2951 52.4908 52.6088 52.8063 53.0048 53.1245 53.3248 53.5263 53.6477 53.851 54.0555 54.1787 54.3851 54.5926 54.7177 54.9272 55.1379 55.2649 55.4776 55.6915 55.8205 56.0366 56.2539 56.3849 56.6044 56.8252 56.9583 57.1814 57.4058 57.5411 57.7677 57.9959 58.1334 58.3639 58.5958 58.7357 58.9701 59.206 59.3483 59.5867 59.8267 59.9715 60.2141 60.4584 60.6057 60.8527 61.1013 61.2514 61.5028 61.756 61.9088 62.165 62.4229 62.5786 62.8395 63.1024 63.2611 63.5271 63.795 63.9568 64.228 64.5013 64.6663 64.9429 65.2217 65.39 65.6724 65.9569 66.1287 66.4169 66.7075 66.8829 67.1773 67.4741 67.6534 67.9541 68.2574 68.4407 68.7481 69.0583 69.2456 69.5601 69.8774 70.0691 70.3909 70.7156 70.9119 71.2414 71.5739 71.7749 72.1125 72.4533 72.6593 73.0053 73.3547 73.566 73.9209 74.2793 74.4962 74.8604 75.2285 75.4511 75.8253 76.2034 76.4322 76.8167 77.2055 77.4408 77.8364 78.2364 78.4786 78.8859 79.2979 79.5473 79.967 80.3916 80.6489 81.0817 81.5198 81.7853 82.2321 82.6846 82.9589 83.4207 83.8885 84.1722 84.65 85.1342 85.4279 85.9229 86.4247 86.7292 87.2426 87.7633 88.0795 88.6127 89.1539 89.4826 90 0.549643 0.675032 0.801207 0.928176 1.05595 1.18454 1.31396 1.44421 1.57531 1.70727 1.8401 1.97381 2.10841 2.24392 2.38034 2.49015 2.62826 2.76732 2.87927 3.02008 3.16188 3.27605 3.41967 3.56432 3.68079 3.82734 3.97496 4.09384 4.24343 4.39414 4.51553 4.6683 4.82223 4.94623 5.10231 5.25961 5.38634 5.54589 5.7067 5.83628 5.99944 6.16393 6.2965 6.46344 6.63178 6.76747 6.93838 7.11075 7.24972 7.42478 7.60138 7.74379 7.92322 8.10426 8.25028 8.4343 8.62001 8.76983 8.95868 9.14931 9.30313 9.49707 9.69289 9.85093 10.0502 10.2515 10.414 10.619 10.8261 10.9933 11.2043 11.4176 11.5898 11.8072 12.0269 12.2044 12.4286 12.6552 12.8384 13.0698 13.3038 13.493 13.732 13.9739 14.1696 14.4168 14.6671 14.8696 15.1257 15.385 15.5949 15.8604 16.1294 16.3473 16.6229 16.9024 17.1288 17.4154 17.7062 17.9419 18.2404 18.5434 18.7891 19.1006 19.4169 19.6736 19.9991 20.33 20.5987 20.9397 21.2865 21.5683 21.9262 22.2906 22.5869 22.9636 23.3474 23.6598 24.0573 24.4627 24.793 25.2137 25.6434 25.9938 26.4406 26.8976 27.2707 27.7471 28.235 28.634 29.1442 29.6676 30.0963 30.6454 31.2099 31.6731 32.2676 32.8801 33.3838 34.0318 34.7013 35.2534 35.9655 36.7037 37.3143 38.1046 38.9272 39.6103 40.4981 41.4268 42.2019 43.2147 44.2811 45.1768 46.3555 47.6074 48.6682 50.0779 51.5936 52.8941 54.6474 56.5679 58.6909 61.0642 63.7549 66.861 70.5348 75.0311 80.8279 88.998 90 0.66985 0.795239 0.921414 1.04838 1.17616 1.30475 1.43416 1.56442 1.69552 1.82748 1.9603 2.09401 2.22862 2.36412 2.50055 2.61036 2.74847 2.88753 2.99948 3.14029 3.28209 3.39625 3.53988 3.68453 3.801 3.94755 4.09517 4.21405 4.36364 4.51435 4.63574 4.7885 4.94244 5.06644 5.22252 5.37982 5.50655 5.66609 5.82691 5.95649 6.11965 6.28414 6.41671 6.58365 6.75199 6.88768 7.05859 7.23096 7.36992 7.54499 7.72159 7.86399 8.04343 8.22447 8.37048 8.5545 8.74022 8.89003 9.07888 9.26952 9.42334 9.61727 9.8131 9.97114 10.1704 10.3717 10.5342 10.7392 10.9463 11.1135 11.3245 11.5378 11.71 11.9274 12.1471 12.3246 12.5488 12.7754 12.9586 13.19 13.424 13.6132 13.8522 14.0941 14.2898 14.537 14.7873 14.9898 15.2459 15.5052 15.7151 15.9806 16.2496 16.4675 16.7431 17.0226 17.249 17.5356 17.8264 18.0621 18.3606 18.6636 18.9094 19.2208 19.5371 19.7938 20.1194 20.4502 20.7189 21.0599 21.4067 21.6885 22.0464 22.4108 22.7071 23.0838 23.4676 23.78 24.1775 24.5829 24.9132 25.3339 25.7636 26.114 26.5608 27.0178 27.3909 27.8673 28.3552 28.7542 29.2644 29.7878 30.2165 30.7656 31.3301 31.7933 32.3878 33.0003 33.504 34.152 34.8215 35.3736 36.0857 36.8239 37.4345 38.2248 39.0474 39.7305 40.6183 41.547 42.3221 43.3349 44.4013 45.297 46.4757 47.7277 48.7884 50.1981 51.7138 53.0143 54.7676 56.6881 58.8111 61.1844 63.8751 66.9812 70.655 75.1513 80.9481 89.1182 90 0.790461 0.915851 1.04203 1.16899 1.29677 1.42536 1.55478 1.68503 1.81613 1.94809 2.08092 2.21462 2.34923 2.48474 2.62116 2.73097 2.86908 3.00814 3.12009 3.2609 3.4027 3.51686 3.66049 3.80514 3.92161 4.06816 4.21578 4.33466 4.48425 4.63496 4.75635 4.90912 5.06305 5.18705 5.34313 5.50043 5.62716 5.7867 5.94752 6.0771 6.24026 6.40475 6.53732 6.70426 6.8726 7.00829 7.1792 7.35157 7.49054 7.6656 7.8422 7.98461 8.16404 8.34508 8.4911 8.67511 8.86083 9.01065 9.19949 9.39013 9.54395 9.73788 9.93371 10.0917 10.2911 10.4924 10.6549 10.8598 11.0669 11.2342 11.4452 11.6584 11.8306 12.048 12.2677 12.4453 12.6694 12.8961 13.0792 13.3106 13.5446 13.7338 13.9728 14.2147 14.4104 14.6576 14.9079 15.1105 15.3665 15.6258 15.8357 16.1012 16.3702 16.5881 16.8637 17.1432 17.3696 17.6562 17.947 18.1827 18.4812 18.7842 19.03 19.3414 19.6577 19.9144 20.24 20.5708 20.8395 21.1805 21.5273 21.8091 22.167 22.5314 22.8277 23.2044 23.5882 23.9006 24.2981 24.7035 25.0339 25.4545 25.8842 26.2346 26.6814 27.1384 27.5115 27.9879 28.4758 28.8749 29.385 29.9084 30.3372 30.8862 31.4507 31.9139 32.5084 33.1209 33.6247 34.2726 34.9421 35.4942 36.2063 36.9445 37.5551 38.3454 39.168 39.8511 40.7389 41.6677 42.4427 43.4555 44.5219 45.4176 46.5963 47.8483 48.909 50.3187 51.8345 53.1349 54.8882 56.8087 58.9317 61.305 63.9957 67.1018 70.7756 75.2719 81.0687 89.2389 90 0.911479 1.03687 1.16304 1.29001 1.41779 1.54638 1.67579 1.80605 1.93715 2.0691 2.20193 2.33564 2.47025 2.60575 2.74218 2.85199 2.9901 3.12916 3.2411 3.38192 3.52372 3.63788 3.7815 3.92616 4.04263 4.18918 4.3368 4.45568 4.60527 4.75598 4.87737 5.03013 5.18407 5.30807 5.46415 5.62145 5.74818 5.90772 6.06854 6.19812 6.36128 6.52577 6.65834 6.82528 6.99362 7.12931 7.30022 7.47259 7.61155 7.78662 7.96322 8.10562 8.28505 8.4661 8.61211 8.79613 8.98185 9.13166 9.32051 9.51115 9.66496 9.8589 10.0547 10.2128 10.4121 10.6134 10.7759 10.9809 11.188 11.3552 11.5662 11.7794 11.9516 12.169 12.3887 12.5663 12.7904 13.0171 13.2003 13.4316 13.6656 13.8548 14.0939 14.3358 14.5314 14.7786 15.029 15.2315 15.4875 15.7468 15.9567 16.2222 16.4913 16.7091 16.9847 17.2642 17.4906 17.7773 18.068 18.3037 18.6022 18.9052 19.151 19.4624 19.7788 20.0355 20.361 20.6919 20.9605 21.3015 21.6483 21.9301 22.288 22.6524 22.9488 23.3254 23.7092 24.0216 24.4191 24.8245 25.1549 25.5756 26.0052 26.3557 26.8025 27.2594 27.6325 28.1089 28.5968 28.9959 29.506 30.0294 30.4582 31.0073 31.5717 32.035 32.6294 33.2419 33.7457 34.3936 35.0631 35.6152 36.3273 37.0655 37.6761 38.4664 39.289 39.9721 40.8599 41.7887 42.5638 43.5765 44.6429 45.5386 46.7173 47.9693 49.0301 50.4397 51.9555 53.2559 55.0092 56.9297 59.0527 61.426 64.1167 67.2228 70.8966 75.393 81.1898 89.3599 90 1.03291 1.1583 1.28447 1.41144 1.53922 1.66781 1.79722 1.92747 2.05857 2.19053 2.32336 2.45707 2.59167 2.72718 2.86361 2.97342 3.11153 3.25059 3.36253 3.50334 3.64515 3.75931 3.90293 4.04758 4.16406 4.3106 4.45822 4.5771 4.7267 4.87741 4.99879 5.15156 5.3055 5.4295 5.58558 5.74288 5.86961 6.02915 6.18996 6.31955 6.48271 6.6472 6.77976 6.94671 7.11504 7.25074 7.42164 7.59401 7.73298 7.90805 8.08465 8.22705 8.40648 8.58753 8.73354 8.91756 9.10328 9.25309 9.44194 9.63257 9.78639 9.98033 10.1762 10.3342 10.5335 10.7348 10.8973 11.1023 11.3094 11.4766 11.6876 11.9008 12.0731 12.2904 12.5102 12.6877 12.9118 13.1385 13.3217 13.553 13.7871 13.9763 14.2153 14.4572 14.6528 14.9001 15.1504 15.3529 15.6089 15.8683 16.0782 16.3437 16.6127 16.8305 17.1062 17.3857 17.6121 17.8987 18.1895 18.4251 18.7237 19.0267 19.2724 19.5839 19.9002 20.1569 20.4824 20.8133 21.082 21.4229 21.7697 22.0516 22.4095 22.7739 23.0702 23.4468 23.8307 24.1431 24.5405 24.946 25.2763 25.697 26.1266 26.4771 26.9239 27.3808 27.754 28.2304 28.7183 29.1173 29.6275 30.1509 30.5796 31.1287 31.6931 32.1564 32.7508 33.3633 33.8671 34.5151 35.1846 35.7367 36.4487 37.1869 37.7976 38.5879 39.4104 40.0936 40.9814 41.9101 42.6852 43.698 44.7644 45.6601 46.8388 48.0907 49.1515 50.5611 52.0769 53.3774 55.1306 57.0511 59.1741 61.5475 64.2381 67.3443 71.018 75.5144 81.3112 89.4813 90 1.15475 1.28014 1.40631 1.53328 1.66105 1.78965 1.91906 2.04931 2.18041 2.31237 2.4452 2.57891 2.71351 2.84902 2.98545 3.09526 3.23337 3.37243 3.48437 3.62518 3.76699 3.88115 4.02477 4.16942 4.2859 4.43244 4.58006 4.69894 4.84854 4.99925 5.12063 5.2734 5.42734 5.55134 5.70742 5.86472 5.99145 6.15099 6.3118 6.44139 6.60455 6.76904 6.9016 7.06855 7.23688 7.37258 7.54348 7.71585 7.85482 8.02989 8.20649 8.34889 8.52832 8.70937 8.85538 9.0394 9.22512 9.37493 9.56378 9.75441 9.90823 10.1022 10.298 10.456 10.6553 10.8566 11.0191 11.2241 11.4312 11.5984 11.8094 12.0227 12.1949 12.4123 12.632 12.8095 13.0337 13.2603 13.4435 13.6749 13.9089 14.0981 14.3371 14.579 14.7747 15.0219 15.2722 15.4747 15.7308 15.9901 16.2 16.4655 16.7345 16.9524 17.228 17.5075 17.7339 18.0205 18.3113 18.547 18.8455 19.1485 19.3943 19.7057 20.022 20.2787 20.6043 20.9351 21.2038 21.5448 21.8916 22.1734 22.5313 22.8957 23.192 23.5687 23.9525 24.2649 24.6624 25.0678 25.3981 25.8188 26.2485 26.5989 27.0457 27.5027 27.8758 28.3522 28.8401 29.2391 29.7493 30.2727 30.7014 31.2505 31.815 32.2782 32.8727 33.4852 33.9889 34.6369 35.3064 35.8585 36.5706 37.3088 37.9194 38.7097 39.5323 40.2154 41.1032 42.0319 42.807 43.8198 44.8862 45.7819 46.9606 48.2126 49.2733 50.683 52.1987 53.4992 55.2525 57.173 59.296 61.6693 64.36 67.4661 71.1399 75.6362 81.433 89.6031 90 1.277 1.40239 1.52857 1.65554 1.78331 1.9119 2.04132 2.17157 2.30267 2.43463 2.56746 2.70117 2.83577 2.97128 3.1077 3.21751 3.35562 3.49468 3.60663 3.74744 3.88924 4.00341 4.14703 4.29168 4.40815 4.5547 4.70232 4.8212 4.97079 5.1215 5.24289 5.39566 5.54959 5.67359 5.82967 5.98697 6.1137 6.27324 6.43406 6.56364 6.7268 6.89129 7.02386 7.1908 7.35914 7.49483 7.66574 7.83811 7.97708 8.15214 8.32874 8.47115 8.65058 8.83162 8.97764 9.16166 9.34737 9.49719 9.68603 9.87667 10.0305 10.2244 10.4202 10.5783 10.7776 10.9789 11.1414 11.3464 11.5535 11.7207 11.9317 12.1449 12.3171 12.5345 12.7543 12.9318 13.1559 13.3826 13.5658 13.7971 14.0312 14.2204 14.4594 14.7013 14.8969 15.1442 15.3945 15.597 15.853 16.1124 16.3223 16.5877 16.8568 17.0746 17.3503 17.6297 17.8562 18.1428 18.4336 18.6692 18.9678 19.2708 19.5165 19.828 20.1443 20.401 20.7265 21.0574 21.3261 21.667 22.0138 22.2957 22.6536 23.018 23.3143 23.6909 24.0748 24.3872 24.7846 25.1901 25.5204 25.9411 26.3707 26.7212 27.168 27.6249 27.9981 28.4745 28.9624 29.3614 29.8715 30.395 30.8237 31.3728 31.9372 32.4005 32.9949 33.6074 34.1112 34.7592 35.4287 35.9808 36.6928 37.431 38.0417 38.832 39.6545 40.3376 41.2255 42.1542 42.9293 43.9421 45 45.9042 47.0829 48.3348 49.3956 50.8052 52.321 53.6214 55.3747 57.2952 59.4182 61.7916 64.4822 67.5884 71.2621 75.7585 81.5553 89.7254 90 1.39967 1.52506 1.65124 1.77821 1.90598 2.03457 2.16399 2.29424 2.42534 2.5573 2.69013 2.82384 2.95844 3.09395 3.23038 3.34018 3.47829 3.61736 3.7293 3.87011 4.01191 4.12608 4.2697 4.41435 4.53083 4.67737 4.82499 4.94387 5.09346 5.24418 5.36556 5.51833 5.67226 5.79626 5.95235 6.10965 6.23638 6.39592 6.55673 6.68631 6.84947 7.01396 7.14653 7.31347 7.48181 7.6175 7.78841 7.96078 8.09975 8.27482 8.45142 8.59382 8.77325 8.95429 9.10031 9.28433 9.47004 9.61986 9.80871 9.99934 10.1532 10.3471 10.5429 10.701 10.9003 11.1016 11.2641 11.4691 11.6762 11.8434 12.0544 12.2676 12.4398 12.6572 12.8769 13.0545 13.2786 13.5053 13.6885 13.9198 14.1538 14.343 14.5821 14.824 15.0196 15.2668 15.5172 15.7197 15.9757 16.235 16.4449 16.7104 16.9795 17.1973 17.4729 17.7524 17.9788 18.2655 18.5562 18.7919 19.0904 19.3934 19.6392 19.9506 20.267 20.5236 20.8492 21.1801 21.4487 21.7897 22.1365 22.4183 22.7762 23.1406 23.437 23.8136 24.1974 24.5098 24.9073 25.3127 25.6431 26.0638 26.4934 26.8438 27.2907 27.7476 28.1207 28.5971 29.085 29.4841 29.9942 30.5176 30.9464 31.4954 32.0599 32.5231 33.1176 33.7301 34.2339 34.8818 35.5513 36.1034 36.8155 37.5537 38.1643 38.9546 39.7772 40.4603 41.3481 42.2769 43.052 44.0647 45.1311 46.0268 47.2055 48.4575 49.5182 50.9279 52.4437 53.7441 55.4974 57.4179 59.5409 61.9142 64.6049 67.711 71.3848 75.8812 81.6779 89.8481 90 1.52277 1.64816 1.77433 1.9013 2.02908 2.15767 2.28708 2.41734 2.54844 2.68039 2.81322 2.94693 3.08154 3.21704 3.35347 3.46328 3.60139 3.74045 3.85239 3.99321 4.13501 4.24917 4.39279 4.53745 4.65392 4.80047 4.94809 5.06697 5.21656 5.36727 5.48866 5.64142 5.79536 5.91936 6.07544 6.23274 6.35947 6.51901 6.67983 6.80941 6.97257 7.13706 7.26962 7.43657 7.60491 7.7406 7.91151 8.08388 8.22284 8.39791 8.57451 8.71691 8.89634 9.07739 9.2234 9.40742 9.59314 9.74295 9.9318 10.1224 10.2763 10.4702 10.666 10.8241 11.0234 11.2247 11.3872 11.5922 11.7992 11.9665 12.1775 12.3907 12.5629 12.7803 13 13.1776 13.4017 13.6284 13.8115 14.0429 14.2769 14.4661 14.7052 14.9471 15.1427 15.3899 15.6402 15.8428 16.0988 16.3581 16.568 16.8335 17.1025 17.3204 17.596 17.8755 18.1019 18.3886 18.6793 18.915 19.2135 19.5165 19.7623 20.0737 20.3901 20.6467 20.9723 21.3032 21.5718 21.9128 22.2596 22.5414 22.8993 23.2637 23.5601 23.9367 24.3205 24.6329 25.0304 25.4358 25.7662 26.1868 26.6165 26.9669 27.4137 27.8707 28.2438 28.7202 29.2081 29.6072 30.1173 30.6407 31.0695 31.6185 32.183 32.6462 33.2407 33.8532 34.357 35.0049 35.6744 36.2265 36.9386 37.6768 38.2874 39.0777 39.9003 40.5834 41.4712 42.4 43.1751 44.1878 45.2542 46.1499 47.3286 48.5806 49.6413 51.051 52.5668 53.8672 55.6205 57.541 59.664 62.0373 64.728 67.8341 71.5079 76.0042 81.801 89.9712 1.64629 1.77168 1.89785 2.02482 2.15259 2.28118 2.4106 2.54085 2.67195 2.80391 2.93674 3.07045 3.20505 3.34056 3.47699 3.5868 3.72491 3.86397 3.97591 4.11672 4.25853 4.37269 4.51631 4.66096 4.77744 4.92398 5.0716 5.19048 5.34008 5.49079 5.61217 5.76494 5.91888 6.04288 6.19896 6.35626 6.48299 6.64253 6.80334 6.93293 7.09608 7.26058 7.39314 7.56009 7.72842 7.86411 8.03502 8.20739 8.34636 8.52143 8.69803 8.84043 9.01986 9.20091 9.34692 9.53094 9.71666 9.86647 10.0553 10.246 10.3998 10.5937 10.7895 10.9476 11.1469 11.3482 11.5107 11.7157 11.9228 12.09 12.301 12.5142 12.6864 12.9038 13.1235 13.3011 13.5252 13.7519 13.9351 14.1664 14.4004 14.5896 14.8287 15.0706 15.2662 15.5134 15.7638 15.9663 16.2223 16.4817 16.6915 16.957 17.2261 17.4439 17.7196 17.999 18.2254 18.5121 18.8028 19.0385 19.337 19.6401 19.8858 20.1972 20.5136 20.7703 21.0958 21.4267 21.6953 22.0363 22.3831 22.6649 23.0229 23.3872 23.6836 24.0602 24.444 24.7564 25.1539 25.5593 25.8897 26.3104 26.74 27.0905 27.5373 27.9942 28.3674 28.8437 29.3317 29.7307 30.2408 30.7642 31.193 31.7421 32.3065 32.7698 33.3642 33.9767 34.4805 35.1284 35.7979 36.35 37.0621 37.8003 38.411 39.2013 40.0238 40.7069 41.5947 42.5235 43.2986 44.3113 45.3777 46.2734 47.4521 48.7041 49.7649 51.1745 52.6903 53.9907 55.744 57.6645 59.7875 62.1609 64.8515 67.9576 71.6314 76.1278 81.9246 90 1.77023 1.89562 2.02179 2.14876 2.27654 2.40513 2.53454 2.6648 2.7959 2.92786 3.06068 3.19439 3.329 3.46451 3.60093 3.71074 3.84885 3.98791 4.09986 4.24067 4.38247 4.49663 4.64026 4.78491 4.90138 5.04793 5.19555 5.31443 5.46402 5.61473 5.73612 5.88888 6.04282 6.16682 6.3229 6.4802 6.60693 6.76647 6.92729 7.05687 7.22003 7.38452 7.51709 7.68403 7.85237 7.98806 8.15897 8.33134 8.4703 8.64537 8.82197 8.96437 9.14381 9.32485 9.47086 9.65488 9.8406 9.99041 10.1793 10.3699 10.5237 10.7177 10.9135 11.0715 11.2708 11.4721 11.6346 11.8396 12.0467 12.2139 12.4249 12.6382 12.8104 13.0277 13.2475 13.425 13.6492 13.8758 14.059 14.2904 14.5244 14.7136 14.9526 15.1945 15.3902 15.6374 15.8877 16.0902 16.3463 16.6056 16.8155 17.081 17.35 17.5678 17.8435 18.123 18.3494 18.636 18.9268 19.1625 19.461 19.764 20.0097 20.3212 20.6375 20.8942 21.2197 21.5506 21.8193 22.1602 22.5071 22.7889 23.1468 23.5112 23.8075 24.1842 24.568 24.8804 25.2778 25.6833 26.0136 26.4343 26.864 27.2144 27.6612 28.1181 28.4913 28.9677 29.4556 29.8546 30.3648 30.8882 31.3169 31.866 32.4305 32.8937 33.4881 34.1007 34.6044 35.2524 35.9219 36.474 37.1861 37.9242 38.5349 39.3252 40.1478 40.8309 41.7187 42.6474 43.4225 44.4353 45.5017 46.3974 47.5761 48.828 49.8888 51.2985 52.8142 54.1147 55.868 57.7885 59.9115 62.2848 64.9755 68.0816 71.7554 76.2517 82.0485 90 1.8946 2.01999 2.14617 2.27314 2.40091 2.5295 2.65892 2.78917 2.92027 3.05223 3.18506 3.31877 3.45337 3.58888 3.7253 3.83511 3.97322 4.11229 4.22423 4.36504 4.50684 4.62101 4.76463 4.90928 5.02576 5.1723 5.31992 5.4388 5.58839 5.7391 5.86049 6.01326 6.16719 6.29119 6.44728 6.60458 6.73131 6.89085 7.05166 7.18124 7.3444 7.50889 7.64146 7.8084 7.97674 8.11243 8.28334 8.45571 8.59468 8.76974 8.94635 9.08875 9.26818 9.44922 9.59524 9.77926 9.96497 10.1148 10.3036 10.4943 10.6481 10.842 11.0379 11.1959 11.3952 11.5965 11.759 11.964 12.1711 12.3383 12.5493 12.7625 12.9348 13.1521 13.3719 13.5494 13.7735 14 14.1834 14.4147 14.6488 14.838 15.077 15.3189 15.5145 15.7618 16.0121 16.2146 16.4706 16.73 16.9399 17.2054 17.4744 17.6922 17.9679 18.2474 18.4738 18.7604 19.0512 19.2868 19.5854 19.8884 20.1341 20.4456 20.7619 21.0186 21.3441 21.675 21.9437 22.2846 22.6314 22.9133 23.2712 23.6356 23.9319 24.3085 24.6924 25.0048 25.4022 25.8077 26.138 26.5587 26.9883 27.3388 27.7856 28.2425 28.6157 29.0921 29.58 29.979 30.4892 31.0126 31.4413 31.9904 32.5548 33.0181 33.6125 34.225 34.7288 35.3768 36.0463 36.5984 37.3104 38.0486 38.6593 39.4496 40.2721 40.9552 41.8431 42.7718 43.5469 44.5597 45.6261 46.5218 47.7005 48.9524 50.0132 51.4228 52.9386 54.239 55.9923 57.9128 60.0358 62.4092 65.0998 68.206 71.8797 76.3761 82.1729 90 2.01941 2.1448 2.27097 2.39794 2.52572 2.65431 2.78372 2.91398 3.04508 3.17704 3.30986 3.44357 3.57818 3.71369 3.85011 3.95992 4.09803 4.23709 4.34904 4.48985 4.63165 4.74581 4.88944 5.03409 5.15056 5.29711 5.44473 5.56361 5.7132 5.86391 5.9853 6.13807 6.292 6.416 6.57208 6.72938 6.85611 7.01565 7.17647 7.30605 7.46921 7.6337 7.76627 7.93321 8.10155 8.23724 8.40815 8.58052 8.71948 8.89455 9.07115 9.21355 9.39299 9.57403 9.72004 9.90406 10.0898 10.2396 10.4284 10.6191 10.7729 10.9668 11.1627 11.3207 11.52 11.7213 11.8838 12.0888 12.2959 12.4631 12.6741 12.8873 13.0596 13.2769 13.4967 13.6742 13.8983 14.125 14.3082 14.5395 14.7736 14.9628 15.2018 15.4437 15.6393 15.8866 16.1369 16.3394 16.5954 16.8548 17.0647 17.3302 17.5992 17.817 18.0927 18.3722 18.5986 18.8852 19.176 19.4116 19.7102 20.0132 20.2589 20.5704 20.8867 21.1434 21.4689 21.7998 22.0685 22.4094 22.7562 23.0381 23.396 23.7604 24.0567 24.4333 24.8172 25.1296 25.527 25.9325 26.2628 26.6835 27.1131 27.4636 27.9104 28.3673 28.7405 29.2169 29.7048 30.1038 30.614 31.1374 31.5661 32.1152 32.6796 33.1429 33.7373 34.3498 34.8536 35.5016 36.1711 36.7232 37.4352 38.1734 38.7841 39.5744 40.3969 41.0801 41.9679 42.8966 43.6717 44.6845 45.7509 46.6466 47.8253 49.0772 50.138 51.5477 53.0634 54.3639 56.1171 58.0376 60.1606 62.534 65.2246 68.3308 72.0045 76.5009 82.2977 90 2.14465 2.27004 2.39622 2.52319 2.65096 2.77955 2.90897 3.03922 3.17032 3.30228 3.43511 3.56882 3.70342 3.83893 3.97535 4.08516 4.22327 4.36233 4.47428 4.61509 4.75689 4.87106 5.01468 5.15933 5.2758 5.42235 5.56997 5.68885 5.83844 5.98915 6.11054 6.26331 6.41724 6.54124 6.69732 6.85462 6.98135 7.1409 7.30171 7.43129 7.59445 7.75894 7.89151 8.05845 8.22679 8.36248 8.53339 8.70576 8.84473 9.01979 9.19639 9.3388 9.51823 9.69927 9.84529 10.0293 10.215 10.3648 10.5537 10.7443 10.8981 11.0921 11.2879 11.4459 11.6452 11.8465 12.009 12.214 12.4211 12.5884 12.7993 13.0126 13.1848 13.4022 13.6219 13.7994 14.0236 14.2502 14.4334 14.6648 14.8988 15.088 15.327 15.5689 15.7646 16.0118 16.2621 16.4646 16.7207 16.98 17.1899 17.4554 17.7244 17.9423 18.2179 18.4974 18.7238 19.0104 19.3012 19.5369 19.8354 20.1384 20.3842 20.6956 21.0119 21.2686 21.5942 21.925 22.1937 22.5347 22.8815 23.1633 23.5212 23.8856 24.1819 24.5586 24.9424 25.2548 25.6523 26.0577 26.388 26.8087 27.2384 27.5888 28.0356 28.4926 28.8657 29.3421 29.83 30.229 30.7392 31.2626 31.6913 32.2404 32.8049 33.2681 33.8626 34.4751 34.9788 35.6268 36.2963 36.8484 37.5605 38.2987 38.9093 39.6996 40.5222 41.2053 42.0931 43.0218 43.7969 44.8097 45.8761 46.7718 47.9505 49.2025 50.2632 51.6729 53.1886 54.4891 56.2424 58.1629 60.2859 62.6592 65.3499 68.456 72.1298 76.6261 82.4229 90 2.27033 2.39572 2.5219 2.64887 2.77664 2.90523 3.03465 3.1649 3.296 3.42796 3.56079 3.6945 3.8291 3.96461 4.10103 4.21084 4.34895 4.48801 4.59996 4.74077 4.88257 4.99674 5.14036 5.28501 5.40149 5.54803 5.69565 5.81453 5.96412 6.11483 6.23622 6.38899 6.54292 6.66692 6.823 6.9803 7.10703 7.26658 7.42739 7.55697 7.72013 7.88462 8.01719 8.18413 8.35247 8.48816 8.65907 8.83144 8.97041 9.14547 9.32207 9.46448 9.64391 9.82495 9.97097 10.155 10.3407 10.4905 10.6794 10.87 11.0238 11.2178 11.4136 11.5716 11.7709 11.9722 12.1347 12.3397 12.5468 12.714 12.925 13.1383 13.3105 13.5279 13.7476 13.9251 14.1493 14.3759 14.5591 14.7905 15.0245 15.2137 15.4527 15.6946 15.8903 16.1375 16.3878 16.5903 16.8464 17.1057 17.3156 17.5811 17.8501 18.0679 18.3436 18.6231 18.8495 19.1361 19.4269 19.6626 19.9611 20.2641 20.5098 20.8213 21.1376 21.3943 21.7198 22.0507 22.3194 22.6603 23.0072 23.289 23.6469 24.0113 24.3076 24.6843 25.0681 25.3805 25.7779 26.1834 26.5137 26.9344 27.3641 27.7145 28.1613 28.6182 28.9914 29.4678 29.9557 30.3547 30.8649 31.3883 31.817 32.3661 32.9306 33.3938 33.9882 34.6008 35.1045 35.7525 36.422 36.9741 37.6862 38.4243 39.035 39.8253 40.6479 41.331 42.2188 43.1475 43.9226 44.9354 46.0018 46.8975 48.0762 49.3281 50.3889 51.7986 53.3143 54.6148 56.3681 58.2886 60.4116 62.7849 65.4756 68.5817 72.2555 76.7518 82.5486 90 2.39646 2.52185 2.64802 2.77499 2.90276 3.03135 3.16077 3.29102 3.42212 3.55408 3.68691 3.82062 3.95522 4.09073 4.22716 4.33697 4.47508 4.61414 4.72608 4.86689 5.0087 5.12286 5.26648 5.41113 5.52761 5.67415 5.82177 5.94065 6.09025 6.24096 6.36234 6.51511 6.66905 6.79305 6.94913 7.10643 7.23316 7.3927 7.55351 7.6831 7.84625 8.01075 8.14331 8.31026 8.47859 8.61428 8.78519 8.95756 9.09653 9.2716 9.4482 9.5906 9.77003 9.95108 10.0971 10.2811 10.4668 10.6166 10.8055 10.9961 11.1499 11.3439 11.5397 11.6977 11.8971 12.0984 12.2609 12.4658 12.6729 12.8402 13.0512 13.2644 13.4366 13.654 13.8737 14.0512 14.2754 14.502 14.6852 14.9166 15.1506 15.3398 15.5788 15.8207 16.0164 16.2636 16.5139 16.7164 16.9725 17.2318 17.4417 17.7072 17.9762 18.1941 18.4697 18.7492 18.9756 19.2622 19.553 19.7887 20.0872 20.3902 20.636 20.9474 21.2637 21.5204 21.846 22.1768 22.4455 22.7865 23.1333 23.4151 23.773 24.1374 24.4337 24.8104 25.1942 25.5066 25.9041 26.3095 26.6398 27.0605 27.4902 27.8406 28.2874 28.7444 29.1175 29.5939 30.0818 30.4808 30.991 31.5144 31.9431 32.4922 33.0567 33.5199 34.1144 34.7269 35.2307 35.8786 36.5481 37.1002 37.8123 38.5505 39.1611 39.9514 40.774 41.4571 42.3449 43.2736 44.0487 45.0615 46.1279 47.0236 48.2023 49.4543 50.515 51.9247 53.4404 54.7409 56.4942 58.4147 60.5377 62.911 65.6017 68.7078 72.3816 76.8779 82.6747 90 2.52302 2.64841 2.77459 2.90156 3.02933 3.15792 3.28734 3.41759 3.54869 3.68065 3.81348 3.94719 4.08179 4.2173 4.35372 4.46353 4.60164 4.7407 4.85265 4.99346 5.13526 5.24943 5.39305 5.5377 5.65418 5.80072 5.94834 6.06722 6.21681 6.36752 6.48891 6.64168 6.79561 6.91961 7.07569 7.23299 7.35972 7.51927 7.68008 7.80966 7.97282 8.13731 8.26988 8.43682 8.60516 8.74085 8.91176 9.08413 9.2231 9.39816 9.57476 9.71717 9.8966 10.0776 10.2237 10.4077 10.5934 10.7432 10.9321 11.1227 11.2765 11.4704 11.6663 11.8243 12.0236 12.2249 12.3874 12.5924 12.7995 12.9667 13.1777 13.3909 13.5632 13.7805 14 14.1778 14.402 14.6286 14.8118 15.0431 15.2772 15.4664 15.7054 15.9473 16.1429 16.3902 16.6405 16.843 17.0991 17.3584 17.5683 17.8338 18.1028 18.3206 18.5963 18.8758 19.1022 19.3888 19.6796 19.9153 20.2138 20.5168 20.7625 21.074 21.3903 21.647 21.9725 22.3034 22.5721 22.913 23.2599 23.5417 23.8996 24.264 24.5603 24.937 25.3208 25.6332 26.0306 26.4361 26.7664 27.1871 27.6168 27.9672 28.414 28.8709 29.2441 29.7205 30.2084 30.6074 31.1176 31.641 32.0697 32.6188 33.1833 33.6465 34.2409 34.8534 35.3572 36.0052 36.6747 37.2268 37.9389 38.677 39.2877 40.078 40.9006 41.5837 42.4715 43.4002 44.1753 45.1881 46.2545 47.1502 48.3289 49.5808 50.6416 52.0513 53.567 54.8675 56.6207 58.5412 60.6643 63.0376 65.7282 68.8344 72.5082 77.0045 82.8013 90 2.65004 2.77543 2.9016 3.02857 3.15635 3.28494 3.41435 3.54461 3.67571 3.80766 3.94049 4.0742 4.20881 4.34431 4.48074 4.59055 4.72866 4.86772 4.97966 5.12048 5.26228 5.37644 5.52006 5.66472 5.78119 5.92774 6.07536 6.19424 6.34383 6.49454 6.61593 6.76869 6.92263 7.04663 7.20271 7.36001 7.48674 7.64628 7.8071 7.93668 8.09984 8.26433 8.39689 8.563