<?xml version="1.0"?><VTKFile type="PolyData" version="0.1" byte_order="LittleEndian">
<PolyData>
<Piece NumberOfLines="111" NumberOfPoints="8394">
<PointData Scalars=" PointData">
<DataArray type="Float32" Name="time" NumberOfComponents="1" format="ascii" >
0 0.045502 0.091099 0.136792 0.18258 0.228465 0.274446 0.302082 0.348219 0.394453 0.422241 0.468633 0.515124 0.543067 0.589716 0.636466 0.664565 0.711475 0.758487 0.786743 0.833917 0.881194 0.909609 0.95705 1.00459 1.03317 1.08088 1.1287 1.15744 1.20542 1.25351 1.28242 1.33067 1.37904 1.40811 1.45665 1.5053 1.53454 1.58336 1.63229 1.6617 1.71081 1.76003 1.78961 1.83901 1.88851 1.91827 1.96796 2.01776 2.0477 2.09768 2.14778 2.1779 2.22818 2.27858 2.30888 2.35947 2.41017 2.44065 2.49154 2.54256 2.57322 2.62443 2.67575 2.7066 2.75812 2.80976 2.84081 2.89264 2.9446 2.97584 3.028 3.08028 3.11171 3.1642 3.21681 3.24844 3.30125 3.3542 3.38603 3.43918 3.49246 3.52449 3.57798 3.6316 3.66383 3.71767 3.77163 3.80407 3.85825 3.91257 3.94522 3.99975 4.05442 4.08729 4.14218 4.1972 4.23029 4.28554 4.34093 4.37423 4.42985 4.4856 4.51913 4.57511 4.63125 4.66499 4.72136 4.77787 4.81184 4.86859 4.92548 4.95969 5.01682 5.0741 5.10854 5.16606 5.22373 5.25841 5.31633 5.3744 5.40932 5.46764 5.52612 5.56129 5.62002 5.6789 5.71431 5.77346 5.83276 5.86842 5.92799 5.98771 6.02363 6.08362 6.14377 6.17994 6.24037 6.30096 6.33739 6.39825 6.45928 6.49598 6.55728 6.61876 6.65573 6.71749 6.77942 6.81666 6.87887 6.94126 6.97878 7.04146 7.10432 7.14212 7.20527 7.26861 7.30669 7.37032 7.43414 7.47252 7.53663 7.60093 7.63961 7.70422 7.76902 7.80799 7.8731 7.9384 7.97768 8.0433 8.10911 8.1487 8.21484 8.28117 8.32107 8.38773 8.4546 8.49482 8.56201 8.62941 8.66995 8.73769 8.80564 8.84651 8.9148 8.9833 9.02451 9.09336 9.16242 9.20397 9.27339 9.34303 9.38492 9.45492 9.52514 9.56738 9.63797 9.70878 9.75138 9.82257 9.89399 9.93695 10.0087 10.0808 10.1241 10.1965 10.2692 10.3129 10.3859 10.4592 10.5033 10.577 10.6509 10.6954 10.7697 10.8443 10.8892 10.9642 11.0395 11.0848 11.1604 11.2364 11.2821 11.3584 11.4351 11.4812 11.5583 11.6356 11.6821 11.7599 11.838 11.885 11.9635 12.0423 12.0897 12.1689 12.2485 12.2963 12.3763 12.4566 12.505 12.5857 12.6668 12.7156 12.7972 12.879 12.9283 13.0107 13.0934 13.1431 13.2263 13.3098 13.36 13.4441 13.5284 13.5792 13.664 13.7492 13.8005 13.8862 13.9723 14.0241 14.1107 14.1977 14.25 14.3375 14.4254 14.4783 14.5667 14.6555 14.709 14.7984 14.8881 14.9421 15.0325 15.1232 15.1778 15.2692 15.3609 15.4161 15.5084 15.6011 15.657 15.7503 15.8441 15.9005 15.9949 16.0898 16.1469 16.2423 16.3382 16.396 16.4926 16.5896 16.648 16.7457 16.8439 16.903 17.0018 17.1011 17.1609 17.261 17.3615 17.422 17.5232 17.6249 17.6862 17.7887 17.8917 17.9537 18.0574 18.1617 18.2244 18.3295 18.435 18.4986 18.605 18.7119 18.7763 18.884 18.9923 19.0575 19.1667 19.2764 19.3425 19.453 19.5642 19.6312 19.7432 19.8559 19.9237 20.0373 20.1515 20.2203 20.3354 20.4511 20.5209 20.6376 20.755 20.8257 20.9441 21 0.552389 0.677778 0.803952 0.930922 1.0587 1.18729 1.3167 1.44696 1.57806 1.71001 1.84284 1.97655 2.11116 2.24666 2.38309 2.4929 2.63101 2.77007 2.88201 3.02283 3.16463 3.27879 3.42241 3.56707 3.68354 3.83009 3.97771 4.09659 4.24618 4.39689 4.51827 4.67104 4.82498 4.94898 5.10506 5.26236 5.38909 5.54863 5.70945 5.83903 6.00219 6.16668 6.29924 6.46619 6.63453 6.77022 6.94113 7.1135 7.25246 7.42753 7.60413 7.74653 7.92596 8.10701 8.25302 8.43704 8.62276 8.77257 8.96142 9.15206 9.30587 9.49981 9.69563 9.85367 10.053 10.2543 10.4168 10.6218 10.8289 10.9961 11.2071 11.4203 11.5925 11.8099 12.0296 12.2072 12.4313 12.658 12.8412 13.0725 13.3065 13.4957 13.7348 13.9767 14.1723 14.4196 14.6699 14.8724 15.1284 15.3878 15.5977 15.8631 16.1322 16.35 16.6257 16.9051 17.1315 17.4182 17.7089 17.9446 18.2431 18.5462 18.7919 19.1033 19.4197 19.6764 20.0019 20.3328 20.6014 20.9424 21 0.673939 0.799328 0.925502 1.05247 1.18025 1.30884 1.43825 1.56851 1.69961 1.83156 1.96439 2.0981 2.23271 2.36821 2.50464 2.61445 2.75256 2.89162 3.00356 3.14438 3.28618 3.40034 3.54396 3.68862 3.80509 3.95164 4.09926 4.21814 4.36773 4.51844 4.63983 4.79259 4.94653 5.07053 5.22661 5.38391 5.51064 5.67018 5.831 5.96058 6.12374 6.28823 6.42079 6.58774 6.75608 6.89177 7.06268 7.23505 7.37401 7.54908 7.72568 7.86808 8.04751 8.22856 8.37457 8.55859 8.74431 8.89412 9.08297 9.27361 9.42742 9.62136 9.81718 9.97522 10.1745 10.3758 10.5383 10.7433 10.9504 11.1176 11.3286 11.5419 11.7141 11.9315 12.1512 12.3287 12.5529 12.7795 12.9627 13.1941 13.4281 13.6173 13.8563 14.0982 14.2939 14.5411 14.7914 14.9939 15.25 15.5093 15.7192 15.9847 16.2537 16.4716 16.7472 17.0267 17.2531 17.5397 17.8305 18.0662 18.3647 18.6677 18.9134 19.2249 19.5412 19.7979 20.1234 20.4543 20.723 21 0.79617 0.921559 1.04773 1.1747 1.30248 1.43107 1.56048 1.69074 1.82184 1.95379 2.08662 2.22033 2.35494 2.49044 2.62687 2.73668 2.87479 3.01385 3.1258 3.26661 3.40841 3.52257 3.66619 3.81085 3.92732 4.07387 4.22149 4.34037 4.48996 4.64067 4.76206 4.91482 5.06876 5.19276 5.34884 5.50614 5.63287 5.79241 5.95323 6.08281 6.24597 6.41046 6.54303 6.70997 6.87831 7.014 7.18491 7.35728 7.49624 7.67131 7.84791 7.99031 8.16975 8.35079 8.4968 8.68082 8.86654 9.01635 9.2052 9.39584 9.54966 9.74359 9.93942 10.0975 10.2968 10.4981 10.6606 10.8656 11.0726 11.2399 11.4509 11.6641 11.8363 12.0537 12.2734 12.451 12.6751 12.9018 13.0849 13.3163 13.5503 13.7395 13.9786 14.2205 14.4161 14.6633 14.9136 15.1162 15.3722 15.6315 15.8414 16.1069 16.3759 16.5938 16.8694 17.1489 17.3753 17.662 17.9527 18.1884 18.4869 18.7899 19.0357 19.3471 19.6635 19.9201 20.2457 20.5766 20.8452 21 0.919089 1.04448 1.17065 1.29762 1.4254 1.55399 1.6834 1.81366 1.94476 2.07671 2.20954 2.34325 2.47786 2.61336 2.74979 2.8596 2.99771 3.13677 3.24871 3.38953 3.53133 3.64549 3.78911 3.93377 4.05024 4.19679 4.34441 4.46329 4.61288 4.76359 4.88498 5.03774 5.19168 5.31568 5.47176 5.62906 5.75579 5.91533 6.07615 6.20573 6.36889 6.53338 6.66594 6.83289 7 7.13692 7.30783 7.4802 7.61916 7.79423 7.97083 8.11323 8.29266 8.47371 8.61972 8.80374 8.98946 9.13927 9.32812 9.51876 9.67257 9.86651 10.0623 10.2204 10.4197 10.621 10.7835 10.9885 11.1956 11.3628 11.5738 11.787 11.9592 12.1766 12.3963 12.5739 12.798 13.0247 13.2079 13.4392 13.6732 13.8624 14.1015 14.3434 14.539 14.7863 15.0366 15.2391 15.4951 15.7545 15.9644 16.2298 16.4989 16.7167 16.9924 17.2718 17.4982 17.7849 18.0756 18.3113 18.6098 18.9129 19.1586 19.47 19.7864 20.0431 20.3686 20.6995 20.9681 21 1.04271 1.16809 1.29427 1.42124 1.54901 1.6776 1.80702 1.93727 2.06837 2.20033 2.33316 2.46687 2.60147 2.73698 2.87341 2.98322 3.12132 3.26039 3.37233 3.51314 3.65494 3.76911 3.91273 4.05738 4.17386 4.3204 4.46802 4.5869 4.73649 4.88721 5.00859 5.16136 5.31529 5.4393 5.59538 5.75268 5.87941 6.03895 6.19976 6.32935 6.4925 6.65699 6.78956 6.9565 7.12484 7.26053 7.43144 7.60381 7.74278 7.91785 8.09445 8.23685 8.41628 8.59732 8.74334 8.92736 9.11307 9.26289 9.45174 9.64237 9.79619 9.99013 10.186 10.344 10.5433 10.7446 10.9071 11.1121 11.3192 11.4864 11.6974 11.9106 12.0829 12.3002 12.52 12.6975 12.9216 13.1483 13.3315 13.5628 13.7969 13.9861 14.2251 14.467 14.6626 14.9099 15.1602 15.3627 15.6187 15.8781 16.088 16.3535 16.6225 16.8403 17.116 17.3955 17.6219 17.9085 18.1993 18.4349 18.7335 19.0365 19.2822 19.5937 19.91 20.1667 20.4922 20.8231 21 1.16703 1.29242 1.41859 1.54556 1.67333 1.80192 1.93134 2.06159 2.19269 2.32465 2.45748 2.59119 2.72579 2.8613 2.99773 3.10754 3.24564 3.38471 3.49665 3.63746 3.77926 3.89343 4.03705 4.1817 4.29818 4.44472 4.59234 4.71122 4.86082 5.01153 5.13291 5.28568 5.43962 5.56362 5.7197 5.877 6.00373 6.16327 6.32408 6.45367 6.61682 6.78132 6.91388 7.08083 7.24916 7.38485 7.55576 7.72813 7.8671 8.04217 8.21877 8.36117 8.5406 8.72164 8.86766 9.05168 9.2374 9.38721 9.57606 9.76669 9.92051 10.1144 10.3103 10.4683 10.6676 10.8689 11.0314 11.2364 11.4435 11.6107 11.8217 12.0349 12.2072 12.4245 12.6443 12.8218 13.046 13.2726 13.4558 13.6871 13.9212 14.1104 14.3494 14.5913 14.7869 15.0342 15.2845 15.487 15.7431 16.0024 16.2123 16.4778 16.7468 16.9646 17.2403 17.5198 17.7462 18.0328 18.3236 18.5593 18.8578 19.1608 19.4065 19.718 20.0343 20.291 20.6165 20.9474 21 1.29206 1.41745 1.54362 1.67059 1.79837 1.92696 2.05637 2.18663 2.31773 2.44968 2.58251 2.71622 2.85083 2.98633 3.12276 3.23257 3.37068 3.50974 3.62168 3.7625 3.9043 4.01846 4.16208 4.30674 4.42321 4.56976 4.71738 4.83626 4.98585 5.13656 5.25795 5.41071 5.56465 5.68865 5.84473 6.00203 6.12876 6.2883 6.44912 6.5787 6.74186 6.90635 7.03891 7.20586 7.3742 7.50989 7.6808 7.85317 7.99213 8.1672 8.3438 8.4862 8.66563 8.84668 8.99269 9.17671 9.36243 9.51224 9.70109 9.89173 10.0455 10.2395 10.4353 10.5933 10.7927 10.994 11.1565 11.3614 11.5685 11.7358 11.9468 12.16 12.3322 12.5496 12.7693 12.9469 13.171 13.3977 13.5808 13.8122 14.0462 14.2354 14.4744 14.7163 14.912 15.1592 15.4095 15.612 15.8681 16.1274 16.3373 16.6028 16.8718 17.0897 17.3653 17.6448 17.8712 18.1578 18.4486 18.6843 18.9828 19.2858 19.5316 19.843 20.1593 20.416 20.7416 21 1.41781 1.5432 1.66938 1.79635 1.92412 2.05271 2.18213 2.31238 2.44348 2.57544 2.70827 2.84198 2.97658 3.11209 3.24851 3.35832 3.49643 3.63549 3.74744 3.88825 4.03005 4.14422 4.28784 4.43249 4.54896 4.69551 4.84313 4.96201 5.1116 5.26231 5.3837 5.53647 5.6904 5.8144 5.97048 6.12778 6.25451 6.41405 6.57487 6.70445 6.86761 7.0321 7.16467 7.33161 7.49995 7.63564 7.80655 7.97892 8.11789 8.29295 8.46955 8.61196 8.79139 8.97243 9.11845 9.30247 9.48818 9.638 9.82684 10.0175 10.1713 10.3652 10.5611 10.7191 10.9184 11.1197 11.2822 11.4872 11.6943 11.8615 12.0725 12.2857 12.458 12.6753 12.8951 13.0726 13.2967 13.5234 13.7066 13.9379 14.172 14.3612 14.6002 14.8421 15.0377 15.285 15.5353 15.7378 15.9938 16.2532 16.4631 16.7286 16.9976 17.2154 17.4911 17.7706 17.997 18.2836 18.5744 18.81 19.1086 19.4116 19.6573 19.9688 20.2851 20.5418 20.8673 21 1.54429 1.66968 1.79586 1.92283 2.0506 2.17919 2.30861 2.43886 2.56996 2.70192 2.83475 2.96846 3.10306 3.23857 3.375 3.4848 3.62291 3.76198 3.87392 4.01473 4.15653 4.2707 4.41432 4.55897 4.67545 4.82199 4.96961 5.08849 5.23808 5.3888 5.51018 5.66295 5.81688 5.94088 6.09697 6.25427 6.381 6.54054 6.70135 6.83093 6.99409 7.15858 7.29115 7.45809 7.62643 7.76212 7.93303 8.1054 8.24437 8.41944 8.59604 8.73844 8.91787 9.09891 9.24493 9.42895 9.61466 9.76448 9.95333 10.144 10.2978 10.4917 10.6875 10.8456 11.0449 11.2462 11.4087 11.6137 11.8208 11.988 12.199 12.4122 12.5844 12.8018 13.0216 13.1991 13.4232 13.6499 13.8331 14.0644 14.2984 14.4877 14.7267 14.9686 15.1642 15.4115 15.6618 15.8643 16.1203 16.3797 16.5896 16.855 17.1241 17.3419 17.6176 17.897 18.1234 18.4101 18.7009 18.9365 19.2351 19.5381 19.7838 20.0952 20.4116 20.6683 20.9938 21 1.67151 1.7969 1.92308 2.05005 2.17782 2.30641 2.43583 2.56608 2.69718 2.82914 2.96197 3.09568 3.23028 3.36579 3.50222 3.61202 3.75013 3.8892 4.00114 4.14195 4.28375 4.39792 4.54154 4.68619 4.80267 4.94921 5.09683 5.21571 5.3653 5.51602 5.6374 5.79017 5.9441 6.0681 6.22419 6.38149 6.50822 6.66776 6.82857 6.95815 7.12131 7.2858 7.41837 7.58531 7.75365 7.88934 8.06025 8.23262 8.37159 8.54666 8.72326 8.86566 9.04509 9.22613 9.37215 9.55617 9.74188 9.8917 10.0805 10.2712 10.425 10.6189 10.8148 10.9728 11.1721 11.3734 11.5359 11.7409 11.948 12.1152 12.3262 12.5394 12.7117 12.929 13.1488 13.3263 13.5504 13.7771 13.9603 14.1916 14.4257 14.6149 14.8539 15.0958 15.2914 15.5387 15.789 15.9915 16.2475 16.5069 16.7168 16.9823 17.2513 17.4691 17.7448 18.0243 18.2507 18.5373 18.8281 19.0637 19.3623 19.6653 19.911 20.2225 20.5388 20.7955 21 1.79948 1.92487 2.05104 2.17801 2.30579 2.43438 2.5638 2.69405 2.82515 2.95711 3.08993 3.22364 3.35825 3.49376 3.63018 3.73999 3.8781 4.01716 4.12911 4.26992 4.41172 4.52588 4.66951 4.81416 4.93063 5.07718 5.2248 5.34368 5.49327 5.64398 5.76537 5.91814 6.07207 6.19607 6.35215 6.50945 6.63618 6.79572 6.95654 7.08612 7.24928 7.41377 7.54634 7.71328 7.88162 8.01731 8.18822 8.36059 8.49956 8.67462 8.85122 8.99363 9.17306 9.3541 9.50012 9.68413 9.86985 10.0197 10.2085 10.3991 10.553 10.7469 10.9427 11.1008 11.3001 11.5014 11.6639 11.8689 12.076 12.2432 12.4542 12.6674 12.8396 13.057 13.2767 13.4543 13.6784 13.9051 14.0883 14.3196 14.5536 14.7428 14.9819 15.2238 15.4194 15.6666 15.917 16.1195 16.3755 16.6348 16.8447 17.1102 17.3793 17.5971 17.8728 18.1522 18.3786 18.6653 18.956 19.1917 19.4902 19.7933 20.039 20.3504 20.6668 20.9235 21 1.9282 2.05359 2.17977 2.30674 2.43451 2.5631 2.69252 2.82277 2.95387 3.08583 3.21866 3.35237 3.48697 3.62248 3.7589 3.86871 4.00682 4.14588 4.25783 4.39864 4.54044 4.65461 4.79823 4.94288 5.05935 5.2059 5.35352 5.4724 5.62199 5.7727 5.89409 6.04686 6.20079 6.32479 6.48087 6.63817 6.7649 6.92444 7.08526 7.21484 7.378 7.54249 7.67506 7.842 8.01034 8.14603 8.31694 8.48931 8.62828 8.80334 8.97994 9.12235 9.30178 9.48282 9.62884 9.81286 9.99857 10.1484 10.3372 10.5279 10.6817 10.8756 11.0714 11.2295 11.4288 11.6301 11.7926 11.9976 12.2047 12.3719 12.5829 12.7961 12.9683 13.1857 13.4055 13.583 13.8071 14.0338 14.217 14.4483 14.6824 14.8716 15.1106 15.3525 15.5481 15.7954 16.0457 16.2482 16.5042 16.7636 16.9735 17.2389 17.508 17.7258 18.0015 18.2809 18.5074 18.794 19.0848 19.3204 19.619 19.922 20.1677 20.4792 20.7955 21 2.05769 2.18308 2.30925 2.43622 2.564 2.69259 2.822 2.95225 3.08335 3.21531 3.34814 3.48185 3.61645 3.75196 3.88839 3.9982 4.13631 4.27537 4.38731 4.52812 4.66993 4.78409 4.92771 5.07236 5.18884 5.33539 5.48301 5.60188 5.75148 5.90219 6.02357 6.17634 6.33028 6.45428 6.61036 6.76766 6.89439 7.05393 7.21474 7.34433 7.50749 7.67198 7.80454 7.97149 8.13983 8.27552 8.44642 8.6188 8.75776 8.93283 9.10943 9.25183 9.43126 9.61231 9.75832 9.94234 10.1281 10.2779 10.4667 10.6574 10.8112 11.0051 11.2009 11.359 11.5583 11.7596 11.9221 12.1271 12.3342 12.5014 12.7124 12.9256 13.0978 13.3152 13.5349 13.7125 13.9366 14.1633 14.3465 14.5778 14.8118 15.001 15.2401 15.482 15.6776 15.9249 16.1752 16.3777 16.6337 16.8931 17.1029 17.3684 17.6375 17.8553 18.131 18.4104 18.6368 18.9235 19.2142 19.4499 19.7484 20.0515 20.2972 20.6086 20.925 21 2.18795 2.31334 2.43951 2.56648 2.69425 2.82284 2.95226 3.08251 3.21361 3.34557 3.4784 3.61211 3.74671 3.88222 4.01865 4.12846 4.26656 4.40563 4.51757 4.65838 4.80018 4.91435 5.05797 5.20262 5.3191 5.46564 5.61326 5.73214 5.88173 6.03245 6.15383 6.3066 6.46054 6.58454 6.74062 6.89792 7.02465 7.18419 7.345 7.47459 7.63774 7.80224 7.9348 8.10175 8.27008 8.40577 8.57668 8.74905 8.88802 9.06309 9.23969 9.38209 9.56152 9.74256 9.88858 10.0726 10.2583 10.4081 10.597 10.7876 10.9414 11.1354 11.3312 11.4892 11.6885 11.8898 12.0523 12.2573 12.4644 12.6316 12.8426 13.0559 13.2281 13.4455 13.6652 13.8427 14.0669 14.2935 14.4767 14.7081 14.9421 15.1313 15.3703 15.6122 15.8079 16.0551 16.3054 16.5079 16.764 17.0233 17.2332 17.4987 17.7677 17.9856 18.2612 18.5407 18.7671 19.0537 19.3445 19.5802 19.8787 20.1817 20.4275 20.7389 21 2.31899 2.44438 2.57055 2.69752 2.82529 2.95388 3.0833 3.21355 3.34465 3.47661 3.60944 3.74315 3.87775 4.01326 4.14969 4.2595 4.39761 4.53667 4.64861 4.78942 4.93123 5.04539 5.18901 5.33366 5.45014 5.59668 5.7443 5.86318 6.01278 6.16349 6.28487 6.43764 6.59158 6.71558 6.87166 7.02896 7.15569 7.31523 7.47604 7.60563 7.76878 7.93328 8.06584 8.23279 8.40112 8.53681 8.70772 8.88009 9.01906 9.19413 9.37073 9.51313 9.69256 9.87361 10.0196 10.2036 10.3894 10.5392 10.728 10.9187 11.0725 11.2664 11.4622 11.6203 11.8196 12.0209 12.1834 12.3884 12.5955 12.7627 12.9737 13.1869 13.3591 13.5765 13.7962 13.9738 14.1979 14.4246 14.6078 14.8391 15.0731 15.2623 15.5014 15.7433 15.9389 16.1861 16.4365 16.639 16.895 17.1544 17.3642 17.6297 17.8988 18.1166 18.3923 18.6717 18.8981 19.1848 19.4755 19.7112 20.0097 20.3128 20.5585 20.8699 21 2.45082 2.57621 2.70238 2.82935 2.95713 3.08572 3.21513 3.34539 3.47649 3.60844 3.74127 3.87498 4.00959 4.14509 4.28152 4.39133 4.52944 4.6685 4.78044 4.92126 5.06306 5.17722 5.32084 5.4655 5.58197 5.72852 5.87614 5.99502 6.14461 6.29532 6.4167 6.56947 6.72341 6.84741 7.00349 7.16079 7.28752 7.44706 7.60788 7.73746 7.90062 8.06511 8.19767 8.36462 8.53296 8.66865 8.83956 9.01193 9.15089 9.32596 9.50256 9.64496 9.82439 10.0054 10.1515 10.3355 10.5212 10.671 10.8599 11.0505 11.2043 11.3982 11.5941 11.7521 11.9514 12.1527 12.3152 12.5202 12.7273 12.8945 13.1055 13.3187 13.491 13.7083 13.9281 14.1056 14.3298 14.5564 14.7396 14.9709 15.205 15.3942 15.6332 15.8751 16.0707 16.318 16.5683 16.7708 17.0268 17.2862 17.4961 17.7616 18.0306 18.2484 18.5241 18.8036 19.03 19.3166 19.6074 19.8431 20.1416 20.4446 20.6903 21 2.58345 2.70884 2.83502 2.96199 3.08976 3.21835 3.34777 3.47802 3.60912 3.74108 3.87391 4.00762 4.14222 4.27773 4.41415 4.52396 4.66207 4.80113 4.91308 5.05389 5.19569 5.30986 5.45348 5.59813 5.7146 5.86115 6.00877 6.12765 6.27724 6.42795 6.54934 6.70211 6.85604 6.98004 7.13612 7.29342 7.42015 7.57969 7.74051 7.87009 8.03325 8.19774 8.33031 8.49725 8.66559 8.80128 8.97219 9.14456 9.28353 9.45859 9.63519 9.7776 9.95703 10.1381 10.2841 10.4681 10.6538 10.8036 10.9925 11.1831 11.3369 11.5309 11.7267 11.8847 12.084 12.2853 12.4478 12.6528 12.8599 13.0271 13.2381 13.4514 13.6236 13.841 14.0607 14.2382 14.4624 14.689 14.8722 15.1036 15.3376 15.5268 15.7658 16.0077 16.2034 16.4506 16.7009 16.9034 17.1595 17.4188 17.6287 17.8942 18.1632 18.3811 18.6567 18.9362 19.1626 19.4492 19.74 19.9757 20.2742 20.5772 20.823 21 2.7169 2.84229 2.96846 3.09543 3.22321 3.3518 3.48121 3.61146 3.74256 3.87452 4.00735 4.14106 4.27566 4.41117 4.5476 4.65741 4.79552 4.93458 5.04652 5.18733 5.32914 5.4433 5.58692 5.73157 5.84805 5.9946 6.14221 6.26109 6.41069 6.5614 6.68278 6.83555 6.98949 7.11349 7.26957 7.42687 7.5536 7.71314 7.87395 8.00354 8.1667 8.33119 8.46375 8.6307 8.79904 8.93473 9.10563 9.27801 9.41697 9.59204 9.76864 9.91104 10.0905 10.2715 10.4175 10.6016 10.7873 10.9371 11.1259 11.3166 11.4704 11.6643 11.8601 12.0182 12.2175 12.4188 12.5813 12.7863 12.9934 13.1606 13.3716 13.5848 13.757 13.9744 14.1942 14.3717 14.5958 14.8225 15.0057 15.237 15.4711 15.6603 15.8993 16.1412 16.3368 16.5841 16.8344 17.0369 17.2929 17.5523 17.7622 18.0276 18.2967 18.5145 18.7902 19.0696 19.2961 19.5827 19.8735 20.1091 20.4077 20.7107 20.9564 21 2.85116 2.97655 3.10273 3.2297 3.35747 3.48606 3.61548 3.74573 3.87683 4.00879 4.14162 4.27533 4.40993 4.54544 4.68186 4.79167 4.92978 5.06884 5.18079 5.3216 5.4634 5.57757 5.72119 5.86584 5.98232 6.12886 6.27648 6.39536 6.54495 6.69566 6.81705 6.96982 7.12375 7.24775 7.40383 7.56113 7.68786 7.84741 8.00822 8.1378 8.30096 8.46545 8.59802 8.76496 8.9333 9.06899 9.2399 9.41227 9.55124 9.7263 9.9029 10.0453 10.2247 10.4058 10.5518 10.7358 10.9215 11.0713 11.2602 11.4508 11.6046 11.7986 11.9944 12.1524 12.3518 12.5531 12.7156 12.9205 13.1276 13.2949 13.5059 13.7191 13.8913 14.1087 14.3284 14.506 14.7301 14.9568 15.1399 15.3713 15.6053 15.7945 16.0336 16.2755 16.4711 16.7183 16.9686 17.1712 17.4272 17.6865 17.8964 18.1619 18.4309 18.6488 18.9244 19.2039 19.4303 19.717 20.0077 20.2434 20.5419 20.8449 21 2.98626 3.11165 3.23782 3.36479 3.49257 3.62116 3.75058 3.88083 4.01193 4.14389 4.27671 4.41042 4.54503 4.68054 4.81696 4.92677 5.06488 5.20394 5.31589 5.4567 5.5985 5.71266 5.85629 6.00094 6.11741 6.26396 6.41158 6.53046 6.68005 6.83076 6.95215 7.10492 7.25885 7.38285 7.53893 7.69623 7.82296 7.9825 8.14332 8.2729 8.43606 8.60055 8.73312 8.90006 9.0684 9.20409 9.375 9.54737 9.68633 9.8614 10.038 10.1804 10.3598 10.5409 10.6869 10.8709 11.0566 11.2064 11.3953 11.5859 11.7397 11.9337 12.1295 12.2875 12.4869 12.6882 12.8507 13.0556 13.2627 13.43 13.641 13.8542 14.0264 14.2438 14.4635 14.6411 14.8652 15.0919 15.275 15.5064 15.7404 15.9296 16.1686 16.4105 16.6062 16.8534 17.1037 17.3063 17.5623 17.8216 18.0315 18.297 18.566 18.7839 19.0595 19.339 19.5654 19.852 20.1428 20.3785 20.677 20.98 21 3.1222 3.24759 3.37376 3.50073 3.62851 3.7571 3.88651 4.01677 4.14787 4.27983 4.41265 4.54636 4.68097 4.81647 4.9529 5.06271 5.20082 5.33988 5.45183 5.59264 5.73444 5.8486 5.99223 6.13688 6.25335 6.3999 6.54752 6.6664 6.81599 6.9667 7.08809 7.24085 7.39479 7.51879 7.67487 7.83217 7.9589 8.11844 8.27926 8.40884 8.572 8.73649 8.86906 9.036 9.20434 9.34003 9.51094 9.68331 9.82227 9.99734 10.1739 10.3163 10.4958 10.6768 10.8228 11.0069 11.1926 11.3424 11.5312 11.7219 11.8757 12.0696 12.2654 12.4235 12.6228 12.8241 12.9866 13.1916 13.3987 13.5659 13.7769 13.9901 14.1623 14.3797 14.5995 14.777 15.0011 15.2278 15.411 15.6423 15.8764 16.0656 16.3046 16.5465 16.7421 16.9894 17.2397 17.4422 17.6982 17.9576 18.1675 18.4329 18.702 18.9198 19.1955 19.4749 19.7014 19.988 20.2788 20.5144 20.813 21 3.25899 3.38438 3.51056 3.63753 3.7653 3.89389 4.02331 4.15356 4.28466 4.41662 4.54945 4.68316 4.81776 4.95327 5.08969 5.1995 5.33761 5.47667 5.58862 5.72943 5.87123 5.9854 6.12902 6.27367 6.39014 6.53669 6.68431 6.80319 6.95278 7.10349 7.22488 7.37765 7.53158 7.65558 7.81166 7.96896 8.09569 8.25523 8.41605 8.54563 8.70879 8.87328 9.00585 9.17279 9.34113 9.47682 9.64773 9.8201 9.95907 10.1341 10.3107 10.4531 10.6326 10.8136 10.9596 11.1436 11.3294 11.4792 11.668 11.8587 12.0125 12.2064 12.4022 12.5603 12.7596 12.9609 13.1234 13.3284 13.5355 13.7027 13.9137 14.1269 14.2991 14.5165 14.7362 14.9138 15.1379 15.3646 15.5478 15.7791 16.0131 16.2023 16.4414 16.6833 16.8789 17.1262 17.3765 17.579 17.835 18.0944 18.3043 18.5697 18.8388 19.0566 19.3323 19.6117 19.8381 20.1248 20.4155 20.6512 20.9497 21 3.39665 3.52204 3.64821 3.77518 3.90295 4.03154 4.16096 4.29121 4.42231 4.55427 4.6871 4.82081 4.95541 5.09092 5.22735 5.33716 5.47527 5.61433 5.72627 5.86708 6.00889 6.12305 6.26667 6.41132 6.5278 6.67434 6.82196 6.94084 7.09044 7.24115 7.36253 7.5153 7.66924 7.79324 7.94932 8.10662 8.23335 8.39289 8.5537 8.68329 8.84644 9.01094 9.1435 9.31045 9.47878 9.61447 9.78538 9.95775 10.0967 10.2718 10.4484 10.5908 10.7702 10.9513 11.0973 11.2813 11.467 11.6168 11.8057 11.9963 12.1501 12.3441 12.5399 12.6979 12.8972 13.0985 13.261 13.466 13.6731 13.8403 14.0513 14.2646 14.4368 14.6542 14.8739 15.0514 15.2756 15.5022 15.6854 15.9168 16.1508 16.34 16.579 16.8209 17.0166 17.2638 17.5141 17.7166 17.9727 18.232 18.4419 18.7074 18.9764 19.1943 19.4699 19.7494 19.9758 20.2624 20.5532 20.7889 21 3.53517 3.66056 3.78674 3.91371 4.04148 4.17007 4.29949 4.42974 4.56084 4.6928 4.82563 4.95934 5.09394 5.22945 5.36588 5.47568 5.61379 5.75286 5.8648 6.00561 6.14741 6.26158 6.4052 6.54985 6.66633 6.81287 6.96049 7.07937 7.22896 7.37968 7.50106 7.65383 7.80776 7.93176 8.08785 8.24515 8.37188 8.53142 8.69223 8.82181 8.98497 9.14946 9.28203 9.44897 9.61731 9.753 9.92391 10.0963 10.2352 10.4103 10.5869 10.7293 10.9088 11.0898 11.2358 11.4198 11.6055 11.7554 11.9442 12.1348 12.2887 12.4826 12.6784 12.8365 13.0358 13.2371 13.3996 13.6046 13.8117 13.9789 14.1899 14.4031 14.5753 14.7927 15.0124 15.19 15.4141 15.6408 15.824 16.0553 16.2893 16.4785 16.7176 16.9595 17.1551 17.4023 17.6527 17.8552 18.1112 18.3705 18.5804 18.8459 19.115 19.3328 19.6084 19.8879 20.1143 20.401 20.6917 20.9274 21 3.67459 3.79998 3.92615 4.05312 4.1809 4.30949 4.4389 4.56916 4.70026 4.83221 4.96504 5.09875 5.23336 5.36886 5.50529 5.6151 5.75321 5.89227 6.00421 6.14503 6.28683 6.40099 6.54461 6.68927 6.80574 6.95229 7.09991 7.21879 7.36838 7.51909 7.64048 7.79324 7.94718 8.07118 8.22726 8.38456 8.51129 8.67083 8.83165 8.96123 9.12439 9.28888 9.42144 9.58839 9.75673 9.89242 10.0633 10.2357 10.3747 10.5497 10.7263 10.8687 11.0482 11.2292 11.3752 11.5592 11.745 11.8948 12.0836 12.2743 12.4281 12.622 12.8178 12.9759 13.1752 13.3765 13.539 13.744 13.9511 14.1183 14.3293 14.5425 14.7147 14.9321 15.1518 15.3294 15.5535 15.7802 15.9634 16.1947 16.4287 16.6179 16.857 17.0989 17.2945 17.5418 17.7921 17.9946 18.2506 18.51 18.7199 18.9853 19.2544 19.4722 19.7479 20.0273 20.2537 20.5404 20.8311 21 3.8149 3.94029 4.06646 4.19343 4.32121 4.4498 4.57921 4.70947 4.84057 4.97252 5.10535 5.23906 5.37367 5.50917 5.6456 5.75541 5.89352 6.03258 6.14452 6.28534 6.42714 6.5413 6.68492 6.82958 6.94605 7.0926 7.24022 7.3591 7.50869 7.6594 7.78079 7.93355 8.08749 8.21149 8.36757 8.52487 8.6516 8.81114 8.97196 9.10154 9.2647 9.42919 9.56175 9.7287 9.89704 10.0327 10.2036 10.376 10.515 10.69 10.8666 11.009 11.1885 11.3695 11.5155 11.6996 11.8853 12.0351 12.2239 12.4146 12.5684 12.7623 12.9581 13.1162 13.3155 13.5168 13.6793 13.8843 14.0914 14.2586 14.4696 14.6828 14.855 15.0724 15.2922 15.4697 15.6938 15.9205 16.1037 16.335 16.5691 16.7583 16.9973 17.2392 17.4348 17.6821 17.9324 18.1349 18.3909 18.6503 18.8602 19.1256 19.3947 19.6125 19.8882 20.1676 20.3941 20.6807 20.9715 21 3.95612 4.08151 4.20768 4.33465 4.46243 4.59102 4.72043 4.85068 4.98178 5.11374 5.24657 5.38028 5.51488 5.65039 5.78682 5.89663 6.03474 6.1738 6.28574 6.42655 6.56836 6.68252 6.82614 6.97079 7.08727 7.23382 7.38144 7.50031 7.64991 7.80062 7.922 8.07477 8.22871 8.35271 8.50879 8.66609 8.79282 8.95236 9.11317 9.24276 9.40592 9.57041 9.70297 9.86992 10.0383 10.1739 10.3449 10.5172 10.6562 10.8313 11.0079 11.1503 11.3297 11.5107 11.6568 11.8408 12.0265 12.1763 12.3652 12.5558 12.7096 12.9035 13.0994 13.2574 13.4567 13.658 13.8205 14.0255 14.2326 14.3998 14.6108 14.824 14.9963 15.2136 15.4334 15.6109 15.835 16.0617 16.2449 16.4762 16.7103 16.8995 17.1385 17.3804 17.576 17.8233 18.0736 18.2761 18.5321 18.7915 19.0014 19.2669 19.5359 19.7537 20.0294 20.3089 20.5353 20.8219 21 4.09826 4.22365 4.34982 4.47679 4.60456 4.73315 4.86257 4.99282 5.12392 5.25588 5.38871 5.52242 5.65702 5.79253 5.92896 6.03877 6.17687 6.31594 6.42788 6.56869 6.71049 6.82466 6.96828 7.11293 7.22941 7.37595 7.52357 7.64245 7.79205 7.94276 8.06414 8.21691 8.37085 8.49485 8.65093 8.80823 8.93496 9.0945 9.25531 9.3849 9.54805 9.71255 9.84511 10.0121 10.1804 10.3161 10.487 10.6594 10.7983 10.9734 11.15 11.2924 11.4718 11.6529 11.7989 11.9829 12.1686 12.3184 12.5073 12.6979 12.8517 13.0457 13.2415 13.3995 13.5989 13.8002 13.9627 14.1676 14.3747 14.542 14.7529 14.9662 15.1384 15.3558 15.5755 15.753 15.9772 16.2038 16.387 16.6184 16.8524 17.0416 17.2806 17.5225 17.7182 17.9654 18.2157 18.4182 18.6743 18.9336 19.1435 19.409 19.678 19.8959 20.1715 20.451 20.6774 20.964 21 4.24133 4.36672 4.49289 4.61986 4.74763 4.87622 5.00564 5.13589 5.26699 5.39895 5.53178 5.66549 5.80009 5.9356 6.07203 6.18184 6.31995 6.45901 6.57095 6.71176 6.85357 6.96773 7.11135 7.256 7.37248 7.51902 7.66664 7.78552 7.93512 8.08583 8.20721 8.35998 8.51392 8.63792 8.794 8.9513 9.07803 9.23757 9.39838 9.52797 9.69113 9.85562 9.98818 10.1551 10.3235 10.4592 10.6301 10.8024 10.9414 11.1165 11.2931 11.4355 11.6149 11.7959 11.942 12.126 12.3117 12.4615 12.6504 12.841 12.9948 13.1887 13.3846 13.5426 13.7419 13.9432 14.1057 14.3107 14.5178 14.685 14.896 15.1093 15.2815 15.4988 15.7186 15.8961 16.1203 16.3469 16.5301 16.7614 16.9955 17.1847 17.4237 17.6656 17.8612 18.1085 18.3588 18.5613 18.8174 19.0767 19.2866 19.5521 19.8211 20.0389 20.3146 20.5941 20.8205 21 4.38534 4.51073 4.63691 4.76387 4.89165 5.02024 5.14966 5.27991 5.41101 5.54297 5.6758 5.8095 5.94411 6.07962 6.21604 6.32585 6.46396 6.60302 6.71497 6.85578 6.99758 7.11174 7.25537 7.40002 7.51649 7.66304 7.81066 7.92954 8.07913 8.22984 8.35123 8.504 8.65793 8.78193 8.93801 9.09531 9.22204 9.38158 9.5424 9.67198 9.83514 9.99963 10.1322 10.2991 10.4675 10.6032 10.7741 10.9464 11.0854 11.2605 11.4371 11.5795 11.7589 11.94 12.086 12.27 12.4557 12.6055 12.7944 12.985 13.1388 13.3328 13.5286 13.6866 13.8859 14.0872 14.2497 14.4547 14.6618 14.829 15.04 15.2533 15.4255 15.6429 15.8626 16.0401 16.2643 16.4909 16.6741 16.9055 17.1395 17.3287 17.5677 17.8096 18.0053 18.2525 18.5028 18.7053 18.9614 19.2207 19.4306 19.6961 19.9651 20.183 20.4586 20.7381 20.9645 21 4.53031 4.6557 4.78188 4.90885 5.03662 5.16521 5.29463 5.42488 5.55598 5.68794 5.82077 5.95448 6.08908 6.22459 6.36101 6.47082 6.60893 6.74799 6.85994 7 7.1418 7.25672 7.40034 7.54499 7.66146 7.80801 7.95563 8.07451 8.2241 8.37481 8.4962 8.64897 8.8029 8.9269 9.08298 9.24028 9.36701 9.52656 9.68737 9.81695 9.98011 10.1446 10.2772 10.4441 10.6125 10.7481 10.9191 11.0914 11.2304 11.4055 11.5821 11.7245 11.9039 12.0849 12.2309 12.415 12.6007 12.7505 12.9393 13.13 13.2838 13.4777 13.6736 13.8316 14.0309 14.2322 14.3947 14.5997 14.8068 14.974 15.185 15.3982 15.5705 15.7878 16.0076 16.1851 16.4092 16.6359 16.8191 17.0504 17.2845 17.4737 17.7127 17.9546 18.1502 18.3975 18.6478 18.8503 19.1063 19.3657 19.5756 19.8411 20.1101 20.3279 20.6036 20.8831 21 4.67625 4.80164 4.92782 5.05479 5.18256 5.31115 5.44057 5.57082 5.70192 5.83388 5.96671 6.10042 6.23502 6.37053 6.50696 6.61676 6.75487 6.89394 7.00588 7.14669 7.28849 7.40266 7.54628 7.69093 7.80741 7.95395 8.10157 8.22045 8.37004 8.52076 8.64214 8.79491 8.94884 9.07284 9.22893 9.38623 9.51296 9.6725 9.83331 9.96289 10.1261 10.2905 10.4231 10.5901 10.7584 10.8941 11.065 11.2374 11.3763 11.5514 11.728 11.8704 12.0498 12.2309 12.3769 12.5609 12.7466 12.8964 13.0853 13.2759 13.4297 13.6237 13.8195 13.9775 14.1769 14.3782 14.5407 14.7456 14.9527 15.12 15.3309 15.5442 15.7164 15.9338 16.1535 16.331 16.5552 16.7818 16.965 17.1964 17.4304 17.6196 17.8586 18.1005 18.2962 18.5434 18.7937 18.9962 19.2523 19.5116 19.7215 19.987 20.256 20.4739 20.7495 21 4.82318 4.94857 5.07474 5.20171 5.32949 5.45808 5.58749 5.71775 5.84885 5.9808 6.11363 6.24734 6.38195 6.51745 6.65388 6.76369 6.9018 7.04086 7.1528 7.29362 7.43542 7.54958 7.6932 7.83786 7.95433 8.10088 8.2485 8.36738 8.51697 8.66768 8.78907 8.94183 9.09577 9.21977 9.37585 9.53315 9.65988 9.81942 9.98024 10.1098 10.273 10.4375 10.57 10.737 10.9053 11.041 11.2119 11.3843 11.5233 11.6983 11.8749 12.0173 12.1968 12.3778 12.5238 12.7078 12.8935 13.0434 13.2322 13.4228 13.5767 13.7706 13.9664 14.1245 14.3238 14.5251 14.6876 14.8926 15.0997 15.2669 15.4779 15.6911 15.8633 16.0807 16.3004 16.478 16.7021 16.9288 17.112 17.3433 17.5773 17.7665 18.0056 18.2475 18.4431 18.6903 18.9407 19.1432 19.3992 19.6585 19.8684 20.1339 20.403 20.6208 20.8964 21 4.9711 5.09649 5.22266 5.34963 5.47741 5.606 5.73541 5.86567 5.99677 6.12872 6.26155 6.39526 6.52987 6.66537 6.8018 6.91161 7.04972 7.18878 7.30073 7.44154 7.58334 7.6975 