<?xml version="1.0"?><VTKFile type="PolyData" version="0.1" byte_order="LittleEndian">
<PolyData>
<Piece NumberOfLines="48" NumberOfPoints="1411">
<PointData Scalars=" PointData">
<DataArray type="Float32" Name="time" NumberOfComponents="1" format="ascii" >
0 0.045502 0.091099 0.136792 0.18258 0.228465 0.274446 0.302082 0.348219 0.394453 0.422241 0.468633 0.515124 0.543067 0.589716 0.636466 0.664565 0.711475 0.758487 0.786743 0.833917 0.881194 0.909609 0.95705 1.00459 1.03317 1.08088 1.1287 1.15744 1.20542 1.25351 1.28242 1.33067 1.37904 1.40811 1.45665 1.5053 1.53454 1.58336 1.63229 1.6617 1.71081 1.76003 1.78961 1.83901 1.88851 1.91827 1.96796 2.01776 2.0477 2.09768 2.14778 2.1779 2.22818 2.27858 2.30888 2.35947 2.41017 2.44065 2.49154 2.54256 2.57322 2.62443 2.67575 2.7066 2.75812 2.80976 2.84081 2.89264 2.9446 2.97584 3.028 3.08028 3.11171 3.1642 3.21681 3.24844 3.30125 3.3542 3.38603 3.43918 3.49246 3.52449 3.57798 3.6316 3.66383 3.71767 3.77163 3.80407 3.85825 3.91257 3.94522 3.99975 4.05442 4.08729 4.14218 4.1972 4.23029 4.28554 4.34093 4.37423 4.42985 4.4856 4.51913 4.57511 4.63125 4.66499 4.72136 4.77787 4.81184 4.86859 4.92548 4.95969 5.01682 5.0741 5.10854 5.16606 5.22373 5.25841 5.31633 5.3744 5.40932 5.46764 5.52612 5.56129 5.62002 5.6789 5.71431 5.77346 5.83276 5.86842 5.92799 5.98771 6.02363 6.08362 6.14377 6.17994 6.24037 6.30096 6.33739 6.39825 6.45928 6.49598 6.55728 6.61876 6.65573 6.71749 6.77942 6.81666 6.87887 6.94126 6.97878 7 0.552389 0.677778 0.803952 0.930922 1.0587 1.18729 1.3167 1.44696 1.57806 1.71001 1.84284 1.97655 2.11116 2.24666 2.38309 2.4929 2.63101 2.77007 2.88201 3.02283 3.16463 3.27879 3.42241 3.56707 3.68354 3.83009 3.97771 4.09659 4.24618 4.39689 4.51827 4.67104 4.82498 4.94898 5.10506 5.26236 5.38909 5.54863 5.70945 5.83903 6.00219 6.16668 6.29924 6.46619 6.63453 6.77022 6.94113 7 0.673939 0.799328 0.925502 1.05247 1.18025 1.30884 1.43825 1.56851 1.69961 1.83156 1.96439 2.0981 2.23271 2.36821 2.50464 2.61445 2.75256 2.89162 3.00356 3.14438 3.28618 3.40034 3.54396 3.68862 3.80509 3.95164 4.09926 4.21814 4.36773 4.51844 4.63983 4.79259 4.94653 5.07053 5.22661 5.38391 5.51064 5.67018 5.831 5.96058 6.12374 6.28823 6.42079 6.58774 6.75608 6.89177 7 0.79617 0.921559 1.04773 1.1747 1.30248 1.43107 1.56048 1.69074 1.82184 1.95379 2.08662 2.22033 2.35494 2.49044 2.62687 2.73668 2.87479 3.01385 3.1258 3.26661 3.40841 3.52257 3.66619 3.81085 3.92732 4.07387 4.22149 4.34037 4.48996 4.64067 4.76206 4.91482 5.06876 5.19276 5.34884 5.50614 5.63287 5.79241 5.95323 6.08281 6.24597 6.41046 6.54303 6.70997 6.87831 7 0.919089 1.04448 1.17065 1.29762 1.4254 1.55399 1.6834 1.81366 1.94476 2.07671 2.20954 2.34325 2.47786 2.61336 2.74979 2.8596 2.99771 3.13677 3.24871 3.38953 3.53133 3.64549 3.78911 3.93377 4.05024 4.19679 4.34441 4.46329 4.61288 4.76359 4.88498 5.03774 5.19168 5.31568 5.47176 5.62906 5.75579 5.91533 6.07615 6.20573 6.36889 6.53338 6.66594 6.83289 7 1.04271 1.16809 1.29427 1.42124 1.54901 1.6776 1.80702 1.93727 2.06837 2.20033 2.33316 2.46687 2.60147 2.73698 2.87341 2.98322 3.12132 3.26039 3.37233 3.51314 3.65494 3.76911 3.91273 4.05738 4.17386 4.3204 4.46802 4.5869 4.73649 4.88721 5.00859 5.16136 5.31529 5.4393 5.59538 5.75268 5.87941 6.03895 6.19976 6.32935 6.4925 6.65699 6.78956 6.9565 7 1.16703 1.29242 1.41859 1.54556 1.67333 1.80192 1.93134 2.06159 2.19269 2.32465 2.45748 2.59119 2.72579 2.8613 2.99773 3.10754 3.24564 3.38471 3.49665 3.63746 3.77926 3.89343 4.03705 4.1817 4.29818 4.44472 4.59234 4.71122 4.86082 5.01153 5.13291 5.28568 5.43962 5.56362 5.7197 5.877 6.00373 6.16327 6.32408 6.45367 6.61682 6.78132 6.91388 7 1.29206 1.41745 1.54362 1.67059 1.79837 1.92696 2.05637 2.18663 2.31773 2.44968 2.58251 2.71622 2.85083 2.98633 3.12276 3.23257 3.37068 3.50974 3.62168 3.7625 3.9043 4.01846 4.16208 4.30674 4.42321 4.56976 4.71738 4.83626 4.98585 5.13656 5.25795 5.41071 5.56465 5.68865 5.84473 6.00203 6.12876 6.2883 6.44912 6.5787 6.74186 6.90635 7 1.41781 1.5432 1.66938 1.79635 1.92412 2.05271 2.18213 2.31238 2.44348 2.57544 2.70827 2.84198 2.97658 3.11209 3.24851 3.35832 3.49643 3.63549 3.74744 3.88825 4.03005 4.14422 4.28784 4.43249 4.54896 4.69551 4.84313 4.96201 5.1116 5.26231 5.3837 5.53647 5.6904 5.8144 5.97048 6.12778 6.25451 6.41405 6.57487 6.70445 6.86761 7 1.54429 1.66968 1.79586 1.92283 2.0506 2.17919 2.30861 2.43886 2.56996 2.70192 2.83475 2.96846 3.10306 3.23857 3.375 3.4848 3.62291 3.76198 3.87392 4.01473 4.15653 4.2707 4.41432 4.55897 4.67545 4.82199 4.96961 5.08849 5.23808 5.3888 5.51018 5.66295 5.81688 5.94088 6.09697 6.25427 6.381 6.54054 6.70135 6.83093 6.99409 7 1.67151 1.7969 1.92308 2.05005 2.17782 2.30641 2.43583 2.56608 2.69718 2.82914 2.96197 3.09568 3.23028 3.36579 3.50222 3.61202 3.75013 3.8892 4.00114 4.14195 4.28375 4.39792 4.54154 4.68619 4.80267 4.94921 5.09683 5.21571 5.3653 5.51602 5.6374 5.79017 5.9441 6.0681 6.22419 6.38149 6.50822 6.66776 6.82857 6.95815 7 1.79948 1.92487 2.05104 2.17801 2.30579 2.43438 2.5638 2.69405 2.82515 2.95711 3.08993 3.22364 3.35825 3.49376 3.63018 3.73999 3.8781 4.01716 4.12911 4.26992 4.41172 4.52588 4.66951 4.81416 4.93063 5.07718 5.2248 5.34368 5.49327 5.64398 5.76537 5.91814 6.07207 6.19607 6.35215 6.50945 6.63618 6.79572 6.95654 7 1.9282 2.05359 2.17977 2.30674 2.43451 2.5631 2.69252 2.82277 2.95387 3.08583 3.21866 3.35237 3.48697 3.62248 3.7589 3.86871 4.00682 4.14588 4.25783 4.39864 4.54044 4.65461 4.79823 4.94288 5.05935 5.2059 5.35352 5.4724 5.62199 5.7727 5.89409 6.04686 6.20079 6.32479 6.48087 6.63817 6.7649 6.92444 7 2.05769 2.18308 2.30925 2.43622 2.564 2.69259 2.822 2.95225 3.08335 3.21531 3.34814 3.48185 3.61645 3.75196 3.88839 3.9982 4.13631 4.27537 4.38731 4.52812 4.66993 4.78409 4.92771 5.07236 5.18884 5.33539 5.48301 5.60188 5.75148 5.90219 6.02357 6.17634 6.33028 6.45428 6.61036 6.76766 6.89439 7 2.18795 2.31334 2.43951 2.56648 2.69425 2.82284 2.95226 3.08251 3.21361 3.34557 3.4784 3.61211 3.74671 3.88222 4.01865 4.12846 4.26656 4.40563 4.51757 4.65838 4.80018 4.91435 5.05797 5.20262 5.3191 5.46564 5.61326 5.73214 5.88173 6.03245 6.15383 6.3066 6.46054 6.58454 6.74062 6.89792 7 2.31899 2.44438 2.57055 2.69752 2.82529 2.95388 3.0833 3.21355 3.34465 3.47661 3.60944 3.74315 3.87775 4.01326 4.14969 4.2595 4.39761 4.53667 4.64861 4.78942 4.93123 5.04539 5.18901 5.33366 5.45014 5.59668 5.7443 5.86318 6.01278 6.16349 6.28487 6.43764 6.59158 6.71558 6.87166 7 2.45082 2.57621 2.70238 2.82935 2.95713 3.08572 3.21513 3.34539 3.47649 3.60844 3.74127 3.87498 4.00959 4.14509 4.28152 4.39133 4.52944 4.6685 4.78044 4.92126 5.06306 5.17722 5.32084 5.4655 5.58197 5.72852 5.87614 5.99502 6.14461 6.29532 6.4167 6.56947 6.72341 6.84741 7 2.58345 2.70884 2.83502 2.96199 3.08976 3.21835 3.34777 3.47802 3.60912 3.74108 3.87391 4.00762 4.14222 4.27773 4.41415 4.52396 4.66207 4.80113 4.91308 5.05389 5.19569 5.30986 5.45348 5.59813 5.7146 5.86115 6.00877 6.12765 6.27724 6.42795 6.54934 6.70211 6.85604 6.98004 7 2.7169 2.84229 2.96846 3.09543 3.22321 3.3518 3.48121 3.61146 3.74256 3.87452 4.00735 4.14106 4.27566 4.41117 4.5476 4.65741 4.79552 4.93458 5.04652 5.18733 5.32914 5.4433 5.58692 5.73157 5.84805 5.9946 6.14221 6.26109 6.41069 6.5614 6.68278 6.83555 6.98949 7 2.85116 2.97655 3.10273 3.2297 3.35747 3.48606 3.61548 3.74573 3.87683 4.00879 4.14162 4.27533 4.40993 4.54544 4.68186 4.79167 4.92978 5.06884 5.18079 5.3216 5.4634 5.57757 5.72119 5.86584 5.98232 6.12886 6.27648 6.39536 6.54495 6.69566 6.81705 6.96982 7 2.98626 3.11165 3.23782 3.36479 3.49257 3.62116 3.75058 3.88083 4.01193 4.14389 4.27671 4.41042 4.54503 4.68054 4.81696 4.92677 5.06488 5.20394 5.31589 5.4567 5.5985 5.71266 5.85629 6.00094 6.11741 6.26396 6.41158 6.53046 6.68005 6.83076 6.95215 7 3.1222 3.24759 3.37376 3.50073 3.62851 3.7571 3.88651 4.01677 4.14787 4.27983 4.41265 4.54636 4.68097 4.81647 4.9529 5.06271 5.20082 5.33988 5.45183 5.59264 5.73444 5.8486 5.99223 6.13688 6.25335 6.3999 6.54752 6.6664 6.81599 6.9667 7 3.25899 3.38438 3.51056 3.63753 3.7653 3.89389 4.02331 4.15356 4.28466 4.41662 4.54945 4.68316 4.81776 4.95327 5.08969 5.1995 5.33761 5.47667 5.58862 5.72943 5.87123 5.9854 6.12902 6.27367 6.39014 6.53669 6.68431 6.80319 6.95278 7 3.39665 3.52204 3.64821 3.77518 3.90295 4.03154 4.16096 4.29121 4.42231 4.55427 4.6871 4.82081 4.95541 5.09092 5.22735 5.33716 5.47527 5.61433 5.72627 5.86708 6.00889 6.12305 6.26667 6.41132 6.5278 6.67434 6.82196 6.94084 7 3.53517 3.66056 3.78674 3.91371 4.04148 4.17007 4.29949 4.42974 4.56084 4.6928 4.82563 4.95934 5.09394 5.22945 5.36588 5.47568 5.61379 5.75286 5.8648 6.00561 6.14741 6.26158 6.4052 6.54985 6.66633 6.81287 6.96049 7 3.67459 3.79998 3.92615 4.05312 4.1809 4.30949 4.4389 4.56916 4.70026 4.83221 4.96504 5.09875 5.23336 5.36886 5.50529 5.6151 5.75321 5.89227 6.00421 6.14503 6.28683 6.40099 6.54461 6.68927 6.80574 6.95229 7 3.8149 3.94029 4.06646 4.19343 4.32121 4.4498 4.57921 4.70947 4.84057 4.97252 5.10535 5.23906 5.37367 5.50917 5.6456 5.75541 5.89352 6.03258 6.14452 6.28534 6.42714 6.5413 6.68492 6.82958 6.94605 7 3.95612 4.08151 4.20768 4.33465 4.46243 4.59102 4.72043 4.85068 4.98178 5.11374 5.24657 5.38028 5.51488 5.65039 5.78682 5.89663 6.03474 6.1738 6.28574 6.42655 6.56836 6.68252 6.82614 6.97079 7 4.09826 4.22365 4.34982 4.47679 4.60456 4.73315 4.86257 4.99282 5.12392 5.25588 5.38871 5.52242 5.65702 5.79253 5.92896 6.03877 6.17687 6.31594 6.42788 6.56869 6.71049 6.82466 6.96828 7 4.24133 4.36672 4.49289 4.61986 4.74763 4.87622 5.00564 5.13589 5.26699 5.39895 5.53178 5.66549 5.80009 5.9356 6.07203 6.18184 6.31995 6.45901 6.57095 6.71176 6.85357 6.96773 7 4.38534 4.51073 4.63691 4.76387 4.89165 5.02024 5.14966 5.27991 5.41101 5.54297 5.6758 5.8095 5.94411 6.07962 6.21604 6.32585 6.46396 6.60302 6.71497 6.85578 6.99758 7 4.53031 4.6557 4.78188 4.90885 5.03662 5.16521 5.29463 5.42488 5.55598 5.68794 5.82077 5.95448 6.08908 6.22459 6.36101 6.47082 6.60893 6.74799 6.85994 7 4.67625 4.80164 4.92782 5.05479 5.18256 5.31115 5.44057 5.57082 5.70192 5.83388 5.96671 6.10042 6.23502 6.37053 6.50696 6.61676 6.75487 6.89394 7 4.82318 4.94857 5.07474 5.20171 5.32949 5.45808 5.58749 5.71775 5.84885 5.9808 6.11363 6.24734 6.38195 6.51745 6.65388 6.76369 6.9018 7 4.9711 5.09649 5.22266 5.34963 5.47741 5.606 5.73541 5.86567 5.99677 6.12872 6.26155 6.39526 6.52987 6.66537 6.8018 6.91161 7 5.12003 5.24542 5.37159 5.49856 5.62634 5.75493 5.88434 6.0146 6.1457 6.27766 6.41048 6.54419 6.6788 6.8143 6.95073 7 5.26998 5.39537 5.52155 5.64852 5.77629 5.90488 6.0343 6.16455 6.29565 6.42761 6.56044 6.69415 6.82875 6.96426 7 5.42097 5.54636 5.67254 5.79951 5.92728 6.05587 6.18529 6.31554 6.44664 6.5786 6.71143 6.84514 6.97974 7 5.57302 5.69841 5.82458 5.95155 6.07933 6.20792 6.33733 6.46759 6.59869 6.73064 6.86347 6.99718 7 5.72613 5.85152 5.97769 6.10466 6.23244 6.36103 6.49044 6.6207 6.7518 6.88375 7 5.88032 6.00571 6.13189 6.25886 6.38663 6.51522 6.64464 6.77489 6.90599 7 6.03561 6.161 6.28718 6.41415 6.54192 6.67051 6.79993 6.93018 7 6.19202 6.3174 6.44358 6.57055 6.69832 6.82691 6.95633 7 6.34955 6.47494 6.60111 6.72808 6.85586 6.98445 7 6.50823 6.63362 6.75979 6.88676 7 6.66807 6.79346 6.91963 7 6.82909 6.95448 7 6.99131 7 
</DataArray>

</PointData>
<CellData Scalars=" CellData">
<DataArray type="Float32" Name="radius" NumberOfComponents="1" format="ascii" >
0.2 0.04 0.04 0.04 0.04 0.04 0.04 0.04 0.04 0.04 0.04 0.04 0.04 0.04 0.04 0.04 0.04 0.04 0.04 0.04 0.04 0.04 0.04 0.04 0.04 0.04 0.04 0.04 0.04 0.04 0.04 0.04 0.04 0.04 0.04 0.04 0.04 0.04 0.04 0.04 0.04 0.04 0.04 0.04 0.04 0.04 0.04 0.04 
</DataArray>
<DataArray type="Float32" Name="subType" NumberOfComponents="1" format="ascii" >
1 2 2 2 2 2 2 2 2 2 2 2 2 2 2 2 2 2 2 2 2 2 2 2 2 2 2 2 2 2 2 2 2 2 2 2 2 2 2 2 2 2 2 2 2 2 2 2 
</DataArray>
<DataArray type="Float32" Name="creationTime" NumberOfComponents="1" format="ascii" >
0 0.552389 0.673939 0.79617 0.919089 1.04271 1.16703 1.29206 1.41781 1.54429 1.67151 1.79948 1.9282 2.05769 2.18795 2.31899 2.45082 2.58345 2.7169 2.85116 2.98626 3.1222 3.25899 3.39665 3.53517 3.67459 3.8149 3.95612 4.09826 4.24133 4.38534 4.53031 4.67625 4.82318 4.9711 5.12003 5.26998 5.42097 5.57302 5.72613 5.88032 6.03561 6.19202 6.34955 6.50823 6.66807 6.82909 6.99131 
</DataArray>

</CellData>
<Points>
<DataArray type="Float32" Name="Coordinates" NumberOfComponents="3" format="ascii" >
0 0 -3 0.0160067 0.018553 -3.2488 0.0537667 0.0344865 -3.49541 0.100233 0.0656648 -3.73907 0.1066 0.0508581 -3.98855 0.109243 0.0492871 -4.23853 0.096254 0.0461052 -4.48817 0.0941413 0.0295068 -4.63724 0.080942 -0.00809516 -4.88404 0.0677164 -0.0335578 -5.13239 0.0591359 -0.0498488 -5.28126 0.0389359 -0.0632475 -5.53008 0.0225145 -0.0564137 -5.77944 0.0100412 -0.0511213 -5.92883 0.0180813 -0.0555522 -6.17866 0.0278764 -0.0549807 -6.42847 0.0435397 -0.0686566 -6.57702 0.0524147 -0.0689384 -6.82686 0.058423 -0.0644448 -7.07675 0.0585626 -0.0694271 -7.22667 0.0560297 -0.0830375 -7.47628 0.0242348 -0.105565 -7.72323 0.00355473 -0.118167 -7.87126 -0.0134165 -0.121943 -8.12066 -0.0183588 -0.143894 -8.36964 -0.0161342 -0.176021 -8.51614 -0.0101464 -0.230925 -8.75997 -0.00744909 -0.286238 -9.00376 -0.00535236 -0.319767 -9.14995 0.00132364 -0.378593 -9.39283 0.00301144 -0.439216 -9.63537 0.00850356 -0.469336 -9.78221 0.00520427 -0.489887 -10.0313 -0.00135847 -0.513908 -10.2801 -0.00105965 -0.523184 -10.4298 0.0102759 -0.512757 -10.6793 0.0461612 -0.488832 -10.9256 0.0630341 -0.467167 -11.0731 0.10964 -0.462138 -11.3186 0.156979 -0.46394 -11.5641 0.18645 -0.469664 -11.7111 0.223861 -0.43225 -11.9554 0.261228 -0.39515 -12.1998 0.291373 -0.389871 -12.3466 0.324893 -0.391598 -12.5944 0.358571 -0.390848 -12.8421 0.385994 -0.401113 -12.9892 0.406668 -0.440216 -13.2353 0.426528 -0.478916 -13.4814 0.415415 -0.506087 -13.6285 0.399189 -0.549001 -13.8743 0.383823 -0.592432 -14.12 0.37374 -0.615646 -14.2679 0.375655 -0.643759 -14.5163 0.3838 -0.670314 -14.7647 0.390596 -0.697224 -14.9121 0.394492 -0.781038 -15.1476 0.434983 -0.853174 -15.3835 0.469489 -0.895891 -15.5231 0.519535 -0.961842 -15.759 0.572795 -1.05 -15.9868 0.610693 -1.12422 -16.1115 0.670694 -1.24807 -16.3203 0.743198 -1.35668 -16.5334 0.771179 -1.4247 -16.6642 0.820468 -1.52366 -16.8884 0.867152 -1.60725 -17.1193 0.897248 -1.65501 -17.2583 0.958997 -1.72576 -17.49 1.02071 -1.79658 -17.7217 1.04938 -1.84031 -17.8623 1.09493 -1.93015 -18.0911 1.13516 -2.00792 -18.3252 1.15636 -2.06125 -18.4638 1.19375 -2.1551 -18.6925 1.23219 -2.23274 -18.927 1.25504 -2.27991 -19.0676 1.29339 -2.35979 -19.3013 1.32639 -2.43859 -19.5363 1.33417 -2.48077 -19.68 1.3262 -2.54583 -19.9213 1.27941 -2.57512 -20.1651 1.24566 -2.61 -20.307 1.20269 -2.67993 -20.5432 1.17313 -2.74733 -20.7821 1.14678 -2.78734 -20.9242 1.0915 -2.85688 -21.1579 1.03599 -2.92984 -21.3905 1.00685 -2.98426 -21.5272 0.973052 -3.09014 -21.7512 0.931817 -3.20619 -21.9687 0.904597 -3.27275 -22.1004 0.868122 -3.35445 -22.3338 0.826028 -3.43541 -22.5666 0.814353 -3.47499 -22.7108 0.793575 -3.53978 -22.9513 0.79137 -3.60275 -23.1933 0.782812 -3.63455 -23.3396 0.768528 -3.68781 -23.5834 0.76026 -3.73329 -23.8291 0.761019 -3.7655 -23.9756 0.784545 -3.79268 -24.223 0.797153 -3.81695 -24.4715 0.815138 -3.83189 -24.6197 0.861071 -3.85025 -24.8648 0.905961 -3.86821 -25.11 0.933219 -3.86509 -25.2575 0.980782 -3.8665 -25.5029 1.02259 -3.87441 -25.7493 1.0494 -3.86765 -25.8967 1.10262 -3.84857 -26.1402 1.15051 -3.84083 -26.3855 1.17622 -3.83708 -26.5332 1.21291 -3.82089 -26.78 1.25829 -3.814 -27.0257 1.27926 -3.80541 -27.174 1.33346 -3.77831 -27.4166 1.38558 -3.75565 -27.66 1.42348 -3.75962 -27.8051 1.49738 -3.74654 -28.0436 1.53428 -3.731 -28.2903 1.54037 -3.72056 -28.4398 1.55511 -3.70495 -28.6889 1.5486 -3.69084 -28.9384 1.5529 -3.6849 -29.0883 1.55561 -3.67316 -29.338 1.54456 -3.68181 -29.5876 1.52541 -3.66712 -29.7356 1.51285 -3.63016 -29.9825 1.45875 -3.56214 -30.217 1.42779 -3.52359 -30.3586 1.36925 -3.49448 -30.5999 1.32519 -3.46657 -30.8444 1.30164 -3.455 -30.9921 1.25379 -3.42728 -31.2359 1.21632 -3.41298 -31.4826 1.19189 -3.39773 -31.6298 1.14864 -3.39491 -31.8761 1.13717 -3.40161 -32.1257 1.13712 -3.40578 -32.2756 1.15865 -3.40504 -32.5247 1.18414 -3.40017 -32.7734 1.19471 -3.40434 -32.9229 1.21833 -3.41148 -33.1717 1.26454 -3.41436 -33.4174 1.28873 -3.41621 -33.5654 1.34298 -3.40795 -33.8093 1.41055 -3.39261 -34.0495 1.44909 -3.38401 -34.1942 1.51853 -3.37927 -34.4343 1.58435 -3.37472 -34.6755 1.59747 -3.35617 -34.8237 1.60487 -3.34395 -34.9072 0.1066 0.0508581 -3.98855 0.254273 0.230117 -4.08107 0.409408 0.410017 -4.15897 0.549256 0.570261 -4.29036 0.691428 0.706931 -4.44401 0.866416 0.845863 -4.55616 1.04796 0.974776 -4.66984 1.22571 1.11056 -4.78151 1.39875 1.23597 -4.91123 1.57624 1.3722 -5.02276 1.75415 1.50777 -5.13443 1.93083 1.622 -5.26946 2.10465 1.74663 -5.3989 2.29538 1.78965 -5.55469 2.49114 1.83003 -5.70486 2.64686 1.86363 -5.82578 2.84017 1.9096 -5.97749 3.03288 1.96492 -6.12684 3.18739 2.04169 -6.228 3.39021 2.12762 -6.34623 3.53965 2.28077 -6.47552 3.64119 2.39747 -6.60228 3.79557 2.55147 -6.72456 3.94119 2.70746 -6.8548 4.04055 2.8453 -6.96029 4.16507 3.01745 -7.09204 4.27493 3.20021 -7.22253 4.3571 3.36122 -7.30811 4.44772 3.57823 -7.39293 4.55745 3.77673 -7.4981 4.63843 3.9488 -7.56 4.79119 4.12187 -7.65598 4.96334 4.27831 -7.74758 5.08602 4.40435 -7.84279 5.22863 4.57272 -7.96032 5.37888 4.71844 -8.09703 5.47562 4.81969 -8.23982 5.60339 4.93707 -8.41982 5.73613 5.06321 -8.59002 5.83235 5.18064 -8.72021 5.9615 5.32185 -8.88109 6.09512 5.4515 -9.04793 6.1688 5.51191 -9.22377 6.27474 5.64272 -9.40861 6.35615 5.76834 -9.60884 6.42767 5.88707 -9.75302 6.51656 6.03549 -9.9335 6.55394 6.0795 -9.99673 0.0941413 0.0295068 -4.63724 0.279866 -0.135755 -4.6636 0.448355 -0.311546 -4.72025 0.62214 -0.487317 -4.75771 0.788619 -0.670521 -4.79265 0.955509 -0.851976 -4.83414 1.15559 -0.993209 -4.88437 1.33586 -1.15813 -4.93733 1.53238 -1.29567 -5.00776 1.73924 -1.41146 -5.08714 1.9594 -1.49304 -5.17301 2.17846 -1.57639 -5.25998 2.39724 -1.6267 -5.37001 2.60662 -1.6727 -5.49863 2.81616 -1.71684 -5.62764 2.98221 -1.76385 -5.72873 3.14594 -1.91542 -5.84151 3.30335 -2.05536 -5.97619 3.44263 -2.16498 -6.06884 3.62475 -2.28171 -6.19416 3.80094 -2.40977 -6.31688 3.9176 -2.51147 -6.44355 4.07349 -2.66196 -6.56826 4.24525 -2.77686 -6.70897 4.39967 -2.83206 -6.82345 4.59531 -2.90712 -6.95981 4.79705 -2.97051 -7.09315 4.95672 -3.01401 -7.20546 5.14124 -3.0993 -7.35098 5.30953 -3.17433 -7.51995 5.44763 -3.21648 -7.65834 5.60388 -3.27077 -7.84579 5.74745 -3.33463 -8.04024 5.88795 -3.3784 -8.17568 6.0389 -3.46475 -8.35529 6.20614 -3.53477 -8.52741 6.33214 -3.59575 -8.67026 6.51777 -3.63793 -8.83232 6.69241 -3.69641 -9.00138 6.81247 -3.71979 -9.15961 6.96317 -3.74967 -9.35684 7.11973 -3.78775 -9.54799 7.24559 -3.82129 -9.69976 7.41394 -3.8935 -9.86989 7.54459 -3.93496 -10.079 7.64574 -3.95189 -10.2507 7.72502 -3.96096 -10.3877 0.0591359 -0.0498488 -5.28126 -0.140705 0.071056 -5.37039 -0.35185 0.177993 -5.4509 -0.562112 0.311419 -5.47299 -0.766951 0.451721 -5.50225 -0.948305 0.618902 -5.54301 -1.14151 0.744052 -5.64051 -1.35844 0.853013 -5.70028 -1.56052 1.00017 -5.7027 -1.76172 1.14852 -5.70618 -1.94644 1.31085 -5.75118 -2.12391 1.47929 -5.80249 -2.30167 1.64665 -5.85629 -2.4709 1.81503 -5.93052 -2.65711 1.9595 -6.01391 -2.81184 2.07069 -6.0747 -3.02288 2.18866 -6.13829 -3.22357 2.31456 -6.21812 -3.40484 2.38557 -6.26391 -3.619 2.49912 -6.32511 -3.83861 2.60428 -6.38176 -4.00148 2.68786 -6.46231 -4.18076 2.82021 -6.57563 -4.39618 2.91544 -6.65946 -4.56144 3.01364 -6.71466 -4.76307 3.13875 -6.79335 -4.9621 3.2655 -6.87594 -5.1176 3.37138 -6.94383 -5.31128 3.5048 -7.02861 -5.50165 3.635 -7.12508 -5.64385 3.74692 -7.21025 -5.81073 3.88345 -7.33678 -5.9524 4.00052 -7.50626 -6.0405 4.13213 -7.6284 -6.13523 4.29785 -7.78984 -6.22557 4.46883 -7.94829 -6.30342 4.60423 -8.0732 -6.38378 4.75889 -8.25244 -6.37957 4.90259 -8.45697 -6.3559 5.03864 -8.60164 -6.33201 5.22423 -8.76743 -6.27229 5.41779 -8.91395 -6.22416 5.57228 -9.03149 -6.16417 5.76401 -9.18028 -6.09719 5.95238 -9.33039 -6.03439 6.07184 -9.44863 0.0100412 -0.0511213 -5.92883 0.203732 -0.143258 -6.05726 0.407867 -0.193245 -6.19265 0.632135 -0.24688 -6.28923 0.815562 -0.312626 -6.44586 0.974435 -0.399837 -6.61806 1.14766 -0.465622 -6.78588 1.35982 -0.491745 -6.91552 1.57258 -0.518287 -7.04409 1.7822 -0.543845 -7.1779 1.98499 -0.551164 -7.32393 2.19092 -0.55441 -7.46563 2.37555 -0.515632 -7.62967 2.55781 -0.505482 -7.80048 2.73666 -0.504131 -7.97516 2.87074 -0.56219 -8.11173 3.03141 -0.588194 -8.30149 3.19005 -0.59193 -8.49467 3.31662 -0.595581 -8.64948 3.42749 -0.589921 -8.87348 3.51146 -0.603159 -9.10859 3.59342 -0.634301 -9.28834 3.6781 -0.679096 -9.51926 3.78628 -0.696683 -9.74395 3.86604 -0.710523 -9.92684 3.9533 -0.687879 -10.16 4.04369 -0.652415 -10.3904 4.14432 -0.570526 -10.5426 4.31188 -0.513668 -10.7192 4.48127 -0.453538 -10.893 4.63215 -0.408529 -11.0163 4.81769 -0.33377 -11.1662 5.02019 -0.271771 -11.2991 5.18106 -0.223781 -11.4078 5.39016 -0.119951 -11.4972 5.58749 0.0193844 -11.5616 5.7516 0.114648 -11.6248 5.9475 0.198945 -11.7553 6.14506 0.284147 -11.8826 6.30287 0.352376 -11.9848 6.5201 0.399354 -12.0992 6.724 0.491569 -12.2107 6.89499 0.542543 -12.301 7.11426 0.599855 -12.4066 7.30824 0.733182 -12.4852 0.0435397 -0.0686566 -6.57702 -0.15081 -0.19099 -6.67583 -0.359552 -0.316001 -6.73326 -0.568376 -0.44097 -6.79049 -0.77996 -0.540089 -6.87942 -0.989771 -0.616288 -6.99199 -1.19351 -0.706514 -7.10536 -1.39883 -0.827141 -7.18146 -1.58605 -0.971352 -7.26302 -1.78315 -1.11096 -7.32751 -1.94427 -1.27779 -7.42084 -2.11981 -1.45097 -7.46202 -2.26315 -1.63539 -7.55113 -2.37967 -1.83303 -7.65045 -2.49751 -2.02794 -7.75351 -2.58508 -2.18727 -7.83685 -2.70176 -2.35682 -7.97876 -2.82022 -2.52836 -8.11675 -2.90704 -2.66509 -8.23408 -3.02472 -2.8532 -8.34926 -3.16574 -3.019 -8.47224 -3.26411 -3.16438 -8.5681 -3.34901 -3.38037 -8.66106 -3.43767 -3.59562 -8.7522 -3.51222 -3.77444 -8.80184 -3.60647 -4.00305 -8.83861 -3.73589 -4.21646 -8.8531 -3.83601 -4.389 -8.86741 -3.96487 -4.6023 -8.88737 -4.09663 -4.81381 -8.86732 -4.19979 -4.98443 -8.85155 -4.36509 -5.17056 -8.87456 -4.54453 -5.33853 -8.92028 -4.68748 -5.47367 -8.95631 -4.8367 -5.66721 -9.00901 -4.95278 -5.88647 -9.03986 -5.07021 -6.04633 -9.06542 -5.1391 -6.28541 -9.0899 -5.18603 -6.52772 -9.12967 -5.22422 -6.72169 -9.15994 -5.28783 -6.96095 -9.19474 -5.36052 -7.19757 -9.22973 -5.42123 -7.38271 -9.27487 -5.49608 -7.61528 -9.3279 -5.51494 -7.67531 -9.34334 0.0585626 -0.0694271 -7.22667 0.0530835 0.162265 -7.32041 0.0452912 0.398154 -7.40285 -0.0195474 0.622184 -7.49289 -0.116294 0.832629 -7.58698 -0.214368 1.04162 -7.68292 -0.349791 1.24129 -7.74843 -0.448174 1.45603 -7.83034 -0.566304 1.65975 -7.91425 -0.649748 1.88073 -7.99613 -0.703984 2.09995 -8.10337 -0.760196 2.31859 -8.21079 -0.813856 2.53728 -8.3194 -0.863015 2.7446 -8.45018 -0.925132 2.95044 -8.57773 -0.998794 3.10861 -8.67549 -1.08741 3.30513 -8.80209 -1.17731 3.5013 -8.92833 -1.22463 3.65476 -9.04752 -1.28947 3.84249 -9.19936 -1.35917 3.98803 -9.3903 -1.40489 4.12045 -9.53304 -1.46661 4.29186 -9.70424 -1.52221 4.48246 -9.85617 -1.56722 4.63495 -9.9775 -1.55885 4.84901 -10.1064 -1.59399 5.07513 -10.207 -1.64898 5.25157 -10.2835 -1.72438 5.46008 -10.399 -1.83205 5.63588 -10.5404 -1.90172 5.76901 -10.6724 -1.96817 5.91127 -10.8669 -2.00829 6.08531 -11.0419 -2.05568 6.22091 -11.181 -2.11271 6.39681 -11.3493 -2.19552 6.56771 -11.5119 -2.2523 6.70669 -11.644 -2.25534 6.91778 -11.7779 -2.26865 7.14245 -11.8868 -2.28025 7.32237 -11.9733 -2.29441 7.5469 -12.0824 -2.31985 7.77573 -12.1798 -2.36052 7.95983 -12.2465 -2.38601 8.07873 -12.2902 0.00355473 -0.118167 -7.87126 -0.0903189 -0.344984 -7.91861 -0.174249 -0.577487 -7.956 -0.259083 -0.802182 -8.02539 -0.344832 -1.02981 -8.08314 -0.433089 -1.25373 -8.15073 -0.559206 -1.46132 -8.20991 -0.649798 -1.69248 -8.23918 -0.67974 -1.93824 -8.27389 -0.735123 -2.182 -8.27026 -0.7767 -2.42813 -8.25639 -0.812987 -2.67547 -8.25427 -0.850553 -2.92207 -8.23753 -0.859708 -3.17186 -8.242 -0.890205 -3.41972 -8.25369 -0.924493 -3.61106 -8.3007 -0.965462 -3.85077 -8.3587 -1.01218 -4.08769 -8.42339 -1.00486 -4.2771 -8.4872 -0.968743 -4.52017 -8.53314 -0.944393 -4.76147 -8.5938 -0.94965 -4.95551 -8.64198 -0.971519 -5.1976 -8.70043 -1.01426 -5.43082 -8.7797 -1.04855 -5.61956 -8.83625 -1.14126 -5.83145 -8.93118 -1.24556 -6.0478 -9.00054 -1.33033 -6.22559 -9.03525 -1.36518 -6.46637 -9.09277 -1.39968 -6.70719 -9.15037 -1.43178 -6.89801 -9.20093 -1.47671 -7.14224 -9.22985 -1.51923 -7.38798 -9.24724 -1.5557 -7.58352 -9.26806 -1.56283 -7.83107 -9.30222 -1.56639 -8.07889 -9.335 -1.60313 -8.25972 -9.41213 -1.62381 -8.5015 -9.47226 -1.63072 -8.74831 -9.51148 -1.641 -8.94477 -9.54752 -1.66475 -9.19312 -9.5635 -1.60429 -9.43166 -9.60758 -1.56859 -9.56477 -9.63934 -0.0161342 -0.176021 -8.51614 0.118492 -0.00135849 -8.63391 0.245527 0.168347 -8.76643 0.325481 0.376756 -8.87901 0.403387 0.582112 -8.99842 0.42941 0.786463 -9.14006 0.454292 0.990731 -9.28203 0.490272 1.19412 -9.42288 0.490847 1.37662 -9.59375 0.505833 1.54225 -9.7804 0.523081 1.71062 -9.9644 0.515318 1.83001 -10.1839 0.482667 2.00613 -10.3583 0.445486 2.16001 -10.5518 0.42132 2.32902 -10.7344 0.380789 2.48252 -10.8561 0.336399 2.66758 -11.0182 0.303743 2.84691 -11.1893 0.251686 2.98137 -11.3279 0.193313 3.14576 -11.507 0.158245 3.30312 -11.698 0.182089 3.39401 -11.8746 0.205177 3.49883 -12.1004 0.258158 3.61468 -12.3155 0.299851 3.7103 -12.4861 0.35235 3.82893 -12.6998 0.396898 3.9363 -12.9212 0.418267 4.02017 -13.1015 0.440879 4.11382 -13.3321 0.440017 4.20514 -13.5649 0.422295 4.27331 -13.7521 0.352978 4.35725 -13.9771 0.342286 4.47727 -14.1962 0.330295 4.57119 -14.3723 0.306717 4.71292 -14.5769 0.290298 4.82133 -14.8016 0.269084 4.89425 -14.9866 0.247864 5.00454 -15.21 0.236691 5.10906 -15.4368 0.225712 5.18676 -15.6207 0.184359 5.29127 -15.8441 0.152131 5.37117 -16.0261 -0.00535236 -0.319767 -9.14995 0.195937 -0.203605 -9.24208 0.40249 -0.0944788 -9.33112 0.638257 -0.0239549 -9.37517 0.864008 0.065252 -9.43499 1.08586 0.160745 -9.4995 1.30418 0.260628 -9.56923 1.5252 0.374686 -9.59454 1.74162 0.499802 -9.59745 1.95876 0.622767 -9.61261 2.17785 0.742842 -9.60358 2.38937 0.875014 -9.5866 2.59742 1.01361 -9.58417 2.80048 1.15932 -9.57823 2.97453 1.33862 -9.586 3.12568 1.46882 -9.57191 3.31119 1.63521 -9.55188 3.4623 1.83435 -9.55508 3.58314 1.99371 -9.55707 3.71859 2.20232 -9.53185 3.85001 2.40951 -9.57977 3.97618 2.56155 -9.61084 4.13441 2.75194 -9.64572 4.28394 2.9485 -9.68451 4.40664 3.10399 -9.7122 4.57111 3.28713 -9.75593 4.73667 3.47099 -9.79174 4.85815 3.617 -9.8544 5.00899 3.80425 -9.92285 5.15758 3.99678 -9.98071 5.29601 4.13444 -10.0242 5.50675 4.26144 -10.0685 5.7235 4.37869 -10.1105 5.89704 4.47403 -10.1387 6.1127 4.59522 -10.1748 6.32927 4.715 -10.2101 6.51109 4.78094 -10.2611 6.73087 4.88077 -10.3261 6.94884 5.00228 -10.341 7.13278 5.07533 -10.3699 7.36476 5.16085 -10.4069 7.37312 5.16392 -10.4083 0.00850356 -0.469336 -9.78221 0.158161 -0.637539 -9.89088 0.312554 -0.784138 -10.0219 0.489667 -0.91319 -10.1422 0.667871 -1.02388 -10.2782 0.852227 -1.13607 -10.4044 1.01425 -1.24233 -10.5624 1.17373 -1.3098 -10.7427 1.31525 -1.40502 -10.9255 1.41188 -1.54 -11.1124 1.50721 -1.67022 -11.3034 1.62777 -1.82113 -11.4621 1.7821 -1.98969 -11.5634 1.94171 -2.13924 -11.6845 2.09508 -2.28785 -11.8145 2.23494 -2.39701 -11.9068 2.43427 -2.53332 -11.9715 2.63356 -2.66658 -12.0424 2.79646 -2.77142 -12.0921 2.98961 -2.92914 -12.11 3.21506 -3.03717 -12.1104 3.39369 -3.12691 -12.1041 3.61221 -3.22517 -12.0327 3.83169 -3.32147 -11.9616 4.00718 -3.3986 -11.9046 4.23867 -3.49299 -11.9025 4.47041 -3.58674 -11.9042 4.6548 -3.66301 -11.8907 4.89418 -3.72914 -11.862 5.1389 -3.76475 -11.8253 5.33191 -3.80253 -11.789 5.58064 -3.8208 -11.7717 5.82943 -3.83481 -11.7516 6.02805 -3.82819 -11.729 6.27739 -3.82123 -11.7123 6.51698 -3.79329 -11.6466 6.70934 -3.7753 -11.5949 6.95825 -3.75285 -11.6014 7.20803 -3.7604 -11.6087 7.40631 -3.77083 -11.5847 7.47017 -3.7744 -11.5779 -0.00105965 -0.523184 -10.4298 -0.0821933 -0.309813 -10.5317 -0.123973 -0.0915 -10.6462 -0.202413 0.13881 -10.7037 -0.276756 0.376634 -10.724 -0.351552 0.614722 -10.7388 -0.426401 0.850641 -10.774 -0.498339 1.08707 -10.8118 -0.56778 1.32471 -10.8465 -0.633522 1.56325 -10.8822 -0.742248 1.78668 -10.9097 -0.849176 2.01191 -10.9282 -0.980198 2.22477 -10.9331 -1.10971 2.43845 -10.9413 -1.20463 2.6633 -10.8872 -1.2902 2.83596 -10.8336 -1.40899 3.04221 -10.7571 -1.5768 3.21555 -10.6916 -1.69358 3.35078 -10.6018 -1.85135 3.5194 -10.506 -2.02348 3.67491 -10.4128 -2.16096 3.80142 -10.3414 -2.33939 3.95904 -10.2651 -2.48328 4.15492 -10.2066 -2.59821 4.31196 -10.1604 -2.72738 4.49638 -10.0518 -2.86244 4.66327 -9.92368 -2.98244 4.79662 -9.83526 -3.12926 4.96559 -9.72394 -3.26279 5.14501 -9.61224 -3.3723 5.29414 -9.53628 -3.47208 5.41671 -9.34258 -3.58352 5.52835 -9.14862 -3.67606 5.60389 -8.98823 -3.767 5.66838 -8.76446 -3.79592 5.73019 -8.52395 -3.8405 5.77599 -8.33444 -3.89747 5.83155 -8.09744 -3.9474 5.88745 -7.85894 -3.96263 5.90292 -7.79532 0.0630341 -0.467167 -11.0731 0.261954 -0.324377 -11.1235 0.461717 -0.184113 -11.1775 0.667556 -0.0555302 -11.2375 0.87082 0.0671046 -11.3159 1.07592 0.20841 -11.3375 1.28699 0.342142 -11.3294 1.51988 0.429115 -11.3559 1.74946 0.521512 -11.3913 1.97645 0.625686 -11.38 2.17279 0.780442 -11.3795 2.37647 0.924532 -11.3637 2.53722 1.10822 -11.3096 2.69853 1.29462 -11.268 2.8744 1.46791 -11.2287 3.01289 1.60781 -11.1934 3.19037 1.77903 -11.1524 3.29018 1.99249 -11.0689 3.3713 2.1621 -11.0007 3.51758 2.34807 -10.92 3.66477 2.53357 -10.8398 3.78625 2.67988 -10.7778 3.94044 2.86045 -10.6996 4.12291 3.02568 -10.656 4.26839 3.14621 -10.5904 4.45017 3.30376 -10.5223 4.61775 3.47871 -10.4606 4.74197 3.626 -10.407 4.89823 3.80989 -10.3417 5.05157 3.99752 -10.2801 5.17616 4.14709 -10.2342 5.36735 4.30536 -10.2043 5.54768 4.45512 -10.1174 5.67897 4.58573 -10.0419 5.84389 4.74737 -9.9461 6.00778 4.91039 -9.85091 6.14112 5.0425 -9.78186 6.30932 5.21488 -9.71482 6.39796 5.2914 -9.702