<?xml version="1.0"?><VTKFile type="PolyData" version="0.1" byte_order="LittleEndian">
<PolyData>
<Piece NumberOfLines="181" NumberOfPoints="31474">
<PointData Scalars=" PointData">
<DataArray type="Float32" Name="time" NumberOfComponents="1" format="ascii" >
0 0.045502 0.091099 0.136792 0.18258 0.228465 0.274446 0.302082 0.348219 0.394453 0.422241 0.468633 0.515124 0.543067 0.589716 0.636466 0.664565 0.711475 0.758487 0.786743 0.833917 0.881194 0.909609 0.95705 1.00459 1.03317 1.08088 1.1287 1.15744 1.20542 1.25351 1.28242 1.33067 1.37904 1.40811 1.45665 1.5053 1.53454 1.58336 1.63229 1.6617 1.71081 1.76003 1.78961 1.83901 1.88851 1.91827 1.96796 2.01776 2.0477 2.09768 2.14778 2.1779 2.22818 2.27858 2.30888 2.35947 2.41017 2.44065 2.49154 2.54256 2.57322 2.62443 2.67575 2.7066 2.75812 2.80976 2.84081 2.89264 2.9446 2.97584 3.028 3.08028 3.11171 3.1642 3.21681 3.24844 3.30125 3.3542 3.38603 3.43918 3.49246 3.52449 3.57798 3.6316 3.66383 3.71767 3.77163 3.80407 3.85825 3.91257 3.94522 3.99975 4.05442 4.08729 4.14218 4.1972 4.23029 4.28554 4.34093 4.37423 4.42985 4.4856 4.51913 4.57511 4.63125 4.66499 4.72136 4.77787 4.81184 4.86859 4.92548 4.95969 5.01682 5.0741 5.10854 5.16606 5.22373 5.25841 5.31633 5.3744 5.40932 5.46764 5.52612 5.56129 5.62002 5.6789 5.71431 5.77346 5.83276 5.86842 5.92799 5.98771 6.02363 6.08362 6.14377 6.17994 6.24037 6.30096 6.33739 6.39825 6.45928 6.49598 6.55728 6.61876 6.65573 6.71749 6.77942 6.81666 6.87887 6.94126 6.97878 7.04146 7.10432 7.14212 7.20527 7.26861 7.30669 7.37032 7.43414 7.47252 7.53663 7.60093 7.63961 7.70422 7.76902 7.80799 7.8731 7.9384 7.97768 8.0433 8.10911 8.1487 8.21484 8.28117 8.32107 8.38773 8.4546 8.49482 8.56201 8.62941 8.66995 8.73769 8.80564 8.84651 8.9148 8.9833 9.02451 9.09336 9.16242 9.20397 9.27339 9.34303 9.38492 9.45492 9.52514 9.56738 9.63797 9.70878 9.75138 9.82257 9.89399 9.93695 10.0087 10.0808 10.1241 10.1965 10.2692 10.3129 10.3859 10.4592 10.5033 10.577 10.6509 10.6954 10.7697 10.8443 10.8892 10.9642 11.0395 11.0848 11.1604 11.2364 11.2821 11.3584 11.4351 11.4812 11.5583 11.6356 11.6821 11.7599 11.838 11.885 11.9635 12.0423 12.0897 12.1689 12.2485 12.2963 12.3763 12.4566 12.505 12.5857 12.6668 12.7156 12.7972 12.879 12.9283 13.0107 13.0934 13.1431 13.2263 13.3098 13.36 13.4441 13.5284 13.5792 13.664 13.7492 13.8005 13.8862 13.9723 14.0241 14.1107 14.1977 14.25 14.3375 14.4254 14.4783 14.5667 14.6555 14.709 14.7984 14.8881 14.9421 15.0325 15.1232 15.1778 15.2692 15.3609 15.4161 15.5084 15.6011 15.657 15.7503 15.8441 15.9005 15.9949 16.0898 16.1469 16.2423 16.3382 16.396 16.4926 16.5896 16.648 16.7457 16.8439 16.903 17.0018 17.1011 17.1609 17.261 17.3615 17.422 17.5232 17.6249 17.6862 17.7887 17.8917 17.9537 18.0574 18.1617 18.2244 18.3295 18.435 18.4986 18.605 18.7119 18.7763 18.884 18.9923 19.0575 19.1667 19.2764 19.3425 19.453 19.5642 19.6312 19.7432 19.8559 19.9237 20.0373 20.1515 20.2203 20.3354 20.4511 20.5209 20.6376 20.755 20.8257 20.9441 21.0631 21.1349 21.2549 21.3757 21.4484 21.5703 21.6928 21.7666 21.8902 22.0145 22.0895 22.2149 22.3411 22.4172 22.5446 22.6727 22.7499 22.8793 23.0094 23.0878 23.2191 23.3513 23.431 23.5644 23.6987 23.7796 23.9152 24.0517 24.134 24.2718 24.4105 24.4942 24.6343 24.7753 24.8604 25.0029 25.1463 25.2329 25.3778 25.5238 25.6118 25.7593 25.9079 25.9975 26.1476 26.2988 26.39 26.5429 26.6969 26.7898 26.9456 27.1024 27.1971 27.3557 27.5156 27.6121 27.7738 27.9367 28.0351 28.2 28.3662 28.4665 28.6347 28.8042 28.9066 29.0783 29.2513 29.3558 29.531 29.7077 29.8144 29.9933 30.1738 30.2828 30.4657 30.6501 30.7615 30.9485 31.1371 31.251 31.4422 31.6351 31.7517 31.9474 32.1449 32.2642 32.4645 32.6667 32.789 32.9942 33.2014 33.3267 33.5371 33.7496 33.878 34.0938 34.3118 34.4436 34.6651 34.8889 35.0243 35.2518 35.4817 35.6208 35.8547 36.0911 36.2341 36.4747 36.7179 36.8652 37.1128 37.3633 37.515 37.7702 38.0284 38.1848 38.448 38.7144 38.8758 39.1475 39.4227 39.5894 39.8703 40.1547 40.3272 40.6177 40.9122 41.0908 41.3917 41.6969 41.882 42.1942 42.5108 42.7031 43.0273 43.3564 43.5562 43.8934 44.236 44.4441 44.7954 45.1525 45.3696 45.7363 46.1093 46.3362 46.7196 47.11 47.3475 47.7494 48.1587 48.4081 48.8301 49.2605 49.5228 49.9672 50.4208 50.6976 51.1668 51.6463 51.9392 52.4362 52.9448 53.2558 53.7841 54.3255 54.6569 55.2207 55.7995 56.1543 56.7587 57.3803 57.762 58.4133 59.0847 59.4977 60.2039 60.9336 61.3835 62.1545 62.9538 63.4479 64.2969 65.1804 65.7281 66.6728 67.6602 68.2748 69.3394 70.4585 71.1586 72.3778 73.6692 74.4824 75.9089 77.4353 78.4051 80.124 81.9899 83.1912 85.3532 87.7532 89.3312 92.2446 95.6079 99.5858 104.454 110.731 119.578 134.701 154 0.552389 0.677778 0.803952 0.930922 1.0587 1.18729 1.3167 1.44696 1.57806 1.71001 1.84284 1.97655 2.11116 2.24666 2.38309 2.4929 2.63101 2.77007 2.88201 3.02283 3.16463 3.27879 3.42241 3.56707 3.68354 3.83009 3.97771 4.09659 4.24618 4.39689 4.51827 4.67104 4.82498 4.94898 5.10506 5.26236 5.38909 5.54863 5.70945 5.83903 6.00219 6.16668 6.29924 6.46619 6.63453 6.77022 6.94113 7.1135 7.25246 7.42753 7.60413 7.74653 7.92596 8.10701 8.25302 8.43704 8.62276 8.77257 8.96142 9.15206 9.30587 9.49981 9.69563 9.85367 10.053 10.2543 10.4168 10.6218 10.8289 10.9961 11.2071 11.4203 11.5925 11.8099 12.0296 12.2072 12.4313 12.658 12.8412 13.0725 13.3065 13.4957 13.7348 13.9767 14.1723 14.4196 14.6699 14.8724 15.1284 15.3878 15.5977 15.8631 16.1322 16.35 16.6257 16.9051 17.1315 17.4182 17.7089 17.9446 18.2431 18.5462 18.7919 19.1033 19.4197 19.6764 20.0019 20.3328 20.6014 20.9424 21.2892 21.571 21.929 22.2933 22.5897 22.9663 23.3501 23.6626 24.06 24.4654 24.7958 25.2165 25.6461 25.9966 26.4434 26.9003 27.2735 27.7498 28.2378 28.6368 29.1469 29.6703 30.0991 30.6482 31.2126 31.6759 32.2703 32.8828 33.3866 34.0346 34.704 35.2561 35.9682 36.7064 37.3171 38.1074 38.9299 39.613 40.5008 41.4296 42.2047 43.2174 44.2838 45.1795 46.3582 47.6102 48.671 50.0806 51.5964 52.8968 54.6501 56.5706 58.6936 61.067 63.7576 66.8637 70.5375 75.0339 80.8307 89.0008 102.968 154 0.673939 0.799328 0.925502 1.05247 1.18025 1.30884 1.43825 1.56851 1.69961 1.83156 1.96439 2.0981 2.23271 2.36821 2.50464 2.61445 2.75256 2.89162 3.00356 3.14438 3.28618 3.40034 3.54396 3.68862 3.80509 3.95164 4.09926 4.21814 4.36773 4.51844 4.63983 4.79259 4.94653 5.07053 5.22661 5.38391 5.51064 5.67018 5.831 5.96058 6.12374 6.28823 6.42079 6.58774 6.75608 6.89177 7.06268 7.23505 7.37401 7.54908 7.72568 7.86808 8.04751 8.22856 8.37457 8.55859 8.74431 8.89412 9.08297 9.27361 9.42742 9.62136 9.81718 9.97522 10.1745 10.3758 10.5383 10.7433 10.9504 11.1176 11.3286 11.5419 11.7141 11.9315 12.1512 12.3287 12.5529 12.7795 12.9627 13.1941 13.4281 13.6173 13.8563 14.0982 14.2939 14.5411 14.7914 14.9939 15.25 15.5093 15.7192 15.9847 16.2537 16.4716 16.7472 17.0267 17.2531 17.5397 17.8305 18.0662 18.3647 18.6677 18.9134 19.2249 19.5412 19.7979 20.1234 20.4543 20.723 21.0639 21.4108 21.6926 22.0505 22.4149 22.7112 23.0879 23.4717 23.7841 24.1815 24.587 24.9173 25.338 25.7677 26.1181 26.5649 27.0219 27.395 27.8714 28.3593 28.7583 29.2685 29.7919 30.2206 30.7697 31.3342 31.7974 32.3919 33.0044 33.5081 34.1561 34.8256 35.3777 36.0898 36.828 37.4386 38.2289 39.0515 39.7346 40.6224 41.5511 42.3262 43.339 44.4054 45.3011 46.4798 47.7317 48.7925 50.2022 51.7179 53.0184 54.7717 56.6922 58.8152 61.1885 63.8792 66.9853 70.6591 75.1554 80.9522 89.1223 103.089 154 0.79617 0.921559 1.04773 1.1747 1.30248 1.43107 1.56048 1.69074 1.82184 1.95379 2.08662 2.22033 2.35494 2.49044 2.62687 2.73668 2.87479 3.01385 3.1258 3.26661 3.40841 3.52257 3.66619 3.81085 3.92732 4.07387 4.22149 4.34037 4.48996 4.64067 4.76206 4.91482 5.06876 5.19276 5.34884 5.50614 5.63287 5.79241 5.95323 6.08281 6.24597 6.41046 6.54303 6.70997 6.87831 7.014 7.18491 7.35728 7.49624 7.67131 7.84791 7.99031 8.16975 8.35079 8.4968 8.68082 8.86654 9.01635 9.2052 9.39584 9.54966 9.74359 9.93942 10.0975 10.2968 10.4981 10.6606 10.8656 11.0726 11.2399 11.4509 11.6641 11.8363 12.0537 12.2734 12.451 12.6751 12.9018 13.0849 13.3163 13.5503 13.7395 13.9786 14.2205 14.4161 14.6633 14.9136 15.1162 15.3722 15.6315 15.8414 16.1069 16.3759 16.5938 16.8694 17.1489 17.3753 17.662 17.9527 18.1884 18.4869 18.7899 19.0357 19.3471 19.6635 19.9201 20.2457 20.5766 20.8452 21.1862 21.533 21.8148 22.1727 22.5371 22.8335 23.2101 23.5939 23.9063 24.3038 24.7092 25.0396 25.4602 25.8899 26.2403 26.6871 27.1441 27.5172 27.9936 28.4815 28.8806 29.3907 29.9141 30.3429 30.8919 31.4564 31.9196 32.5141 33.1266 33.6304 34.2783 34.9478 35.4999 36.212 36.9502 37.5608 38.3511 39.1737 39.8568 40.7446 41.6734 42.4485 43.4612 44.5276 45.4233 46.602 47.854 48.9147 50.3244 51.8402 53.1406 54.8939 56.8144 58.9374 61.3107 64.0014 67.1075 70.7813 75.2777 81.0744 89.2446 103.211 154 0.919089 1.04448 1.17065 1.29762 1.4254 1.55399 1.6834 1.81366 1.94476 2.07671 2.20954 2.34325 2.47786 2.61336 2.74979 2.8596 2.99771 3.13677 3.24871 3.38953 3.53133 3.64549 3.78911 3.93377 4.05024 4.19679 4.34441 4.46329 4.61288 4.76359 4.88498 5.03774 5.19168 5.31568 5.47176 5.62906 5.75579 5.91533 6.07615 6.20573 6.36889 6.53338 6.66594 6.83289 7 7.13692 7.30783 7.4802 7.61916 7.79423 7.97083 8.11323 8.29266 8.47371 8.61972 8.80374 8.98946 9.13927 9.32812 9.51876 9.67257 9.86651 10.0623 10.2204 10.4197 10.621 10.7835 10.9885 11.1956 11.3628 11.5738 11.787 11.9592 12.1766 12.3963 12.5739 12.798 13.0247 13.2079 13.4392 13.6732 13.8624 14.1015 14.3434 14.539 14.7863 15.0366 15.2391 15.4951 15.7545 15.9644 16.2298 16.4989 16.7167 16.9924 17.2718 17.4982 17.7849 18.0756 18.3113 18.6098 18.9129 19.1586 19.47 19.7864 20.0431 20.3686 20.6995 20.9681 21.3091 21.6559 21.9377 22.2957 22.66 22.9564 23.333 23.7168 24.0293 24.4267 24.8321 25.1625 25.5832 26.0128 26.3633 26.8101 27.267 27.6402 28.1165 28.6045 29.0035 29.5136 30.037 30.4658 31.0149 31.5793 32.0426 32.637 33.2495 33.7533 34.4013 35.0707 35.6228 36.3349 37.0731 37.6838 38.4741 39.2966 39.9797 40.8675 41.7963 42.5714 43.5841 44.6505 45.5462 46.7249 47.9769 49.0377 50.4473 51.9631 53.2635 55.0168 56.9373 59.0603 61.4337 64.1243 67.2304 70.9042 75.4006 81.1974 89.3675 103.334 154 1.04271 1.16809 1.29427 1.42124 1.54901 1.6776 1.80702 1.93727 2.06837 2.20033 2.33316 2.46687 2.60147 2.73698 2.87341 2.98322 3.12132 3.26039 3.37233 3.51314 3.65494 3.76911 3.91273 4.05738 4.17386 4.3204 4.46802 4.5869 4.73649 4.88721 5.00859 5.16136 5.31529 5.4393 5.59538 5.75268 5.87941 6.03895 6.19976 6.32935 6.4925 6.65699 6.78956 6.9565 7.12484 7.26053 7.43144 7.60381 7.74278 7.91785 8.09445 8.23685 8.41628 8.59732 8.74334 8.92736 9.11307 9.26289 9.45174 9.64237 9.79619 9.99013 10.186 10.344 10.5433 10.7446 10.9071 11.1121 11.3192 11.4864 11.6974 11.9106 12.0829 12.3002 12.52 12.6975 12.9216 13.1483 13.3315 13.5628 13.7969 13.9861 14.2251 14.467 14.6626 14.9099 15.1602 15.3627 15.6187 15.8781 16.088 16.3535 16.6225 16.8403 17.116 17.3955 17.6219 17.9085 18.1993 18.4349 18.7335 19.0365 19.2822 19.5937 19.91 20.1667 20.4922 20.8231 21.0918 21.4327 21.7795 22.0614 22.4193 22.7837 23.08 23.4566 23.8405 24.1529 24.5503 24.9558 25.2861 25.7068 26.1364 26.4869 26.9337 27.3906 27.7638 28.2402 28.7281 29.1271 29.6373 30.1607 30.5894 31.1385 31.7029 32.1662 32.7606 33.3731 33.8769 34.5249 35.1944 35.7465 36.4585 37.1967 37.8074 38.5977 39.4202 40.1033 40.9912 41.9199 42.695 43.7078 44.7742 45.6699 46.8486 48.1005 49.1613 50.5709 52.0867 53.3871 55.1404 57.0609 59.1839 61.5573 64.2479 67.3541 71.0278 75.5242 81.321 89.4911 103.458 154 1.16703 1.29242 1.41859 1.54556 1.67333 1.80192 1.93134 2.06159 2.19269 2.32465 2.45748 2.59119 2.72579 2.8613 2.99773 3.10754 3.24564 3.38471 3.49665 3.63746 3.77926 3.89343 4.03705 4.1817 4.29818 4.44472 4.59234 4.71122 4.86082 5.01153 5.13291 5.28568 5.43962 5.56362 5.7197 5.877 6.00373 6.16327 6.32408 6.45367 6.61682 6.78132 6.91388 7.08083 7.24916 7.38485 7.55576 7.72813 7.8671 8.04217 8.21877 8.36117 8.5406 8.72164 8.86766 9.05168 9.2374 9.38721 9.57606 9.76669 9.92051 10.1144 10.3103 10.4683 10.6676 10.8689 11.0314 11.2364 11.4435 11.6107 11.8217 12.0349 12.2072 12.4245 12.6443 12.8218 13.046 13.2726 13.4558 13.6871 13.9212 14.1104 14.3494 14.5913 14.7869 15.0342 15.2845 15.487 15.7431 16.0024 16.2123 16.4778 16.7468 16.9646 17.2403 17.5198 17.7462 18.0328 18.3236 18.5593 18.8578 19.1608 19.4065 19.718 20.0343 20.291 20.6165 20.9474 21.2161 21.557 21.9039 22.1857 22.5436 22.908 23.2043 23.581 23.9648 24.2772 24.6746 25.0801 25.4104 25.8311 26.2608 26.6112 27.058 27.5149 27.8881 28.3645 28.8524 29.2514 29.7616 30.285 30.7137 31.2628 31.8273 32.2905 32.8849 33.4974 34.0012 34.6492 35.3187 35.8708 36.5829 37.321 37.9317 38.722 39.5446 40.2277 41.1155 42.0442 42.8193 43.8321 44.8985 45.7942 46.9729 48.2248 49.2856 50.6953 52.211 53.5115 55.2647 57.1852 59.3083 61.6816 64.3722 67.4784 71.1522 75.6485 81.4453 89.6154 103.582 154 1.29206 1.41745 1.54362 1.67059 1.79837 1.92696 2.05637 2.18663 2.31773 2.44968 2.58251 2.71622 2.85083 2.98633 3.12276 3.23257 3.37068 3.50974 3.62168 3.7625 3.9043 4.01846 4.16208 4.30674 4.42321 4.56976 4.71738 4.83626 4.98585 5.13656 5.25795 5.41071 5.56465 5.68865 5.84473 6.00203 6.12876 6.2883 6.44912 6.5787 6.74186 6.90635 7.03891 7.20586 7.3742 7.50989 7.6808 7.85317 7.99213 8.1672 8.3438 8.4862 8.66563 8.84668 8.99269 9.17671 9.36243 9.51224 9.70109 9.89173 10.0455 10.2395 10.4353 10.5933 10.7927 10.994 11.1565 11.3614 11.5685 11.7358 11.9468 12.16 12.3322 12.5496 12.7693 12.9469 13.171 13.3977 13.5808 13.8122 14.0462 14.2354 14.4744 14.7163 14.912 15.1592 15.4095 15.612 15.8681 16.1274 16.3373 16.6028 16.8718 17.0897 17.3653 17.6448 17.8712 18.1578 18.4486 18.6843 18.9828 19.2858 19.5316 19.843 20.1593 20.416 20.7416 21.0724 21.3411 21.6821 22.0289 22.3107 22.6686 23.033 23.3293 23.706 24.0898 24.4022 24.7997 25.2051 25.5355 25.9561 26.3858 26.7362 27.183 27.64 28.0131 28.4895 28.9774 29.3765 29.8866 30.41 30.8388 31.3878 31.9523 32.4155 33.01 33.6225 34.1263 34.7742 35.4437 35.9958 36.7079 37.4461 38.0567 38.847 39.6696 40.3527 41.2405 42.1692 42.9443 43.9571 45.0235 45.9192 47.0979 48.3499 49.4106 50.8203 52.3361 53.6365 55.3898 57.3103 59.4333 61.8066 64.4973 67.6034 71.2772 75.7735 81.5703 89.7405 103.707 154 1.41781 1.5432 1.66938 1.79635 1.92412 2.05271 2.18213 2.31238 2.44348 2.57544 2.70827 2.84198 2.97658 3.11209 3.24851 3.35832 3.49643 3.63549 3.74744 3.88825 4.03005 4.14422 4.28784 4.43249 4.54896 4.69551 4.84313 4.96201 5.1116 5.26231 5.3837 5.53647 5.6904 5.8144 5.97048 6.12778 6.25451 6.41405 6.57487 6.70445 6.86761 7.0321 7.16467 7.33161 7.49995 7.63564 7.80655 7.97892 8.11789 8.29295 8.46955 8.61196 8.79139 8.97243 9.11845 9.30247 9.48818 9.638 9.82684 10.0175 10.1713 10.3652 10.5611 10.7191 10.9184 11.1197 11.2822 11.4872 11.6943 11.8615 12.0725 12.2857 12.458 12.6753 12.8951 13.0726 13.2967 13.5234 13.7066 13.9379 14.172 14.3612 14.6002 14.8421 15.0377 15.285 15.5353 15.7378 15.9938 16.2532 16.4631 16.7286 16.9976 17.2154 17.4911 17.7706 17.997 18.2836 18.5744 18.81 19.1086 19.4116 19.6573 19.9688 20.2851 20.5418 20.8673 21.1982 21.4669 21.8078 22.1546 22.4365 22.7944 23.1588 23.4551 23.8317 24.2156 24.528 24.9254 25.3309 25.6612 26.0819 26.5115 26.862 27.3088 27.7657 28.1389 28.6153 29.1032 29.5022 30.0124 30.5358 30.9645 31.5136 32.078 32.5413 33.1357 33.7482 34.252 34.9 35.5695 36.1216 36.8336 37.5718 38.1825 38.9728 39.7953 40.4785 41.3663 42.295 43.0701 44.0829 45.1493 46.045 47.2237 48.4756 49.5364 50.9461 52.4618 53.7623 55.5155 57.436 59.559 61.9324 64.623 67.7292 71.403 75.8993 81.6961 89.8662 103.833 154 1.54429 1.66968 1.79586 1.92283 2.0506 2.17919 2.30861 2.43886 2.56996 2.70192 2.83475 2.96846 3.10306 3.23857 3.375 3.4848 3.62291 3.76198 3.87392 4.01473 4.15653 4.2707 4.41432 4.55897 4.67545 4.82199 4.96961 5.08849 5.23808 5.3888 5.51018 5.66295 5.81688 5.94088 6.09697 6.25427 6.381 6.54054 6.70135 6.83093 6.99409 7.15858 7.29115 7.45809 7.62643 7.76212 7.93303 8.1054 8.24437 8.41944 8.59604 8.73844 8.91787 9.09891 9.24493 9.42895 9.61466 9.76448 9.95333 10.144 10.2978 10.4917 10.6875 10.8456 11.0449 11.2462 11.4087 11.6137 11.8208 11.988 12.199 12.4122 12.5844 12.8018 13.0216 13.1991 13.4232 13.6499 13.8331 14.0644 14.2984 14.4877 14.7267 14.9686 15.1642 15.4115 15.6618 15.8643 16.1203 16.3797 16.5896 16.855 17.1241 17.3419 17.6176 17.897 18.1234 18.4101 18.7009 18.9365 19.2351 19.5381 19.7838 20.0952 20.4116 20.6683 20.9938 21.3247 21.5933 21.9343 22.2811 22.563 22.9209 23.2853 23.5816 23.9582 24.342 24.6545 25.0519 25.4574 25.7877 26.2084 26.638 26.9885 27.4353 27.8922 28.2654 28.7417 29.2297 29.6287 30.1388 30.6622 31.091 31.6401 32.2045 32.6678 33.2622 33.8747 34.3785 35.0265 35.696 36.248 36.9601 37.6983 38.309 39.0993 39.9218 40.6049 41.4927 42.4215 43.1966 44.2094 45.2757 46.1714 47.3501 48.6021 49.6629 51.0725 52.5883 53.8887 55.642 57.5625 59.6855 62.0589 64.7495 67.8557 71.5294 76.0258 81.8226 89.9927 103.974 154 1.67151 1.7969 1.92308 2.05005 2.17782 2.30641 2.43583 2.56608 2.69718 2.82914 2.96197 3.09568 3.23028 3.36579 3.50222 3.61202 3.75013 3.8892 4.00114 4.14195 4.28375 4.39792 4.54154 4.68619 4.80267 4.94921 5.09683 5.21571 5.3653 5.51602 5.6374 5.79017 5.9441 6.0681 6.22419 6.38149 6.50822 6.66776 6.82857 6.95815 7.12131 7.2858 7.41837 7.58531 7.75365 7.88934 8.06025 8.23262 8.37159 8.54666 8.72326 8.86566 9.04509 9.22613 9.37215 9.55617 9.74188 9.8917 10.0805 10.2712 10.425 10.6189 10.8148 10.9728 11.1721 11.3734 11.5359 11.7409 11.948 12.1152 12.3262 12.5394 12.7117 12.929 13.1488 13.3263 13.5504 13.7771 13.9603 14.1916 14.4257 14.6149 14.8539 15.0958 15.2914 15.5387 15.789 15.9915 16.2475 16.5069 16.7168 16.9823 17.2513 17.4691 17.7448 18.0243 18.2507 18.5373 18.8281 19.0637 19.3623 19.6653 19.911 20.2225 20.5388 20.7955 21.121 21.4519 21.7206 22.0615 22.4083 22.6902 23.0481 23.4125 23.7088 24.0854 24.4693 24.7817 25.1791 25.5846 25.9149 26.3356 26.7652 27.1157 27.5625 28.0194 28.3926 28.869 29.3569 29.7559 30.2661 30.7895 31.2182 31.7673 32.3317 32.795 33.3894 34.0019 34.5057 35.1537 35.8232 36.3753 37.0874 37.8255 38.4362 39.2265 40.049 40.7322 41.62 42.5487 43.3238 44.3366 45.403 46.2987 47.4774 48.7293 49.7901 51.1998 52.7155 54.016 55.7692 57.6897 59.8128 62.1861 64.8767 67.9829 71.6567 76.153 81.9498 90.1199 104.087 154 1.79948 1.92487 2.05104 2.17801 2.30579 2.43438 2.5638 2.69405 2.82515 2.95711 3.08993 3.22364 3.35825 3.49376 3.63018 3.73999 3.8781 4.01716 4.12911 4.26992 4.41172 4.52588 4.66951 4.81416 4.93063 5.07718 5.2248 5.34368 5.49327 5.64398 5.76537 5.91814 6.07207 6.19607 6.35215 6.50945 6.63618 6.79572 6.95654 7.08612 7.24928 7.41377 7.54634 7.71328 7.88162 8.01731 8.18822 8.36059 8.49956 8.67462 8.85122 8.99363 9.17306 9.3541 9.50012 9.68413 9.86985 10.0197 10.2085 10.3991 10.553 10.7469 10.9427 11.1008 11.3001 11.5014 11.6639 11.8689 12.076 12.2432 12.4542 12.6674 12.8396 13.057 13.2767 13.4543 13.6784 13.9051 14.0883 14.3196 14.5536 14.7428 14.9819 15.2238 15.4194 15.6666 15.917 16.1195 16.3755 16.6348 16.8447 17.1102 17.3793 17.5971 17.8728 18.1522 18.3786 18.6653 18.956 19.1917 19.4902 19.7933 20.039 20.3504 20.6668 20.9235 21.249 21.5799 21.8485 22.1895 22.5363 22.8181 23.1761 23.5404 23.8368 24.2134 24.5972 24.9096 25.3071 25.7125 26.0429 26.4636 26.8932 27.2437 27.6905 28.1474 28.5206 28.9969 29.4849 29.8839 30.394 30.9174 31.3462 31.8953 32.4597 32.923 33.5174 34.1299 34.6337 35.2816 35.9511 36.5032 37.2153 37.9535 38.5641 39.3544 40.177 40.8601 41.7479 42.6767 43.4518 44.4645 45.5309 46.4266 47.6053 48.8573 49.9181 51.3277 52.8435 54.1439 55.8972 57.8177 59.9407 62.314 65.0047 68.1108 71.7846 76.281 82.0778 90.2479 104.215 154 1.9282 2.05359 2.17977 2.30674 2.43451 2.5631 2.69252 2.82277 2.95387 3.08583 3.21866 3.35237 3.48697 3.62248 3.7589 3.86871 4.00682 4.14588 4.25783 4.39864 4.54044 4.65461 4.79823 4.94288 5.05935 5.2059 5.35352 5.4724 5.62199 5.7727 5.89409 6.04686 6.20079 6.32479 6.48087 6.63817 6.7649 6.92444 7.08526 7.21484 7.378 7.54249 7.67506 7.842 8.01034 8.14603 8.31694 8.48931 8.62828 8.80334 8.97994 9.12235 9.30178 9.48282 9.62884 9.81286 9.99857 10.1484 10.3372 10.5279 10.6817 10.8756 11.0714 11.2295 11.4288 11.6301 11.7926 11.9976 12.2047 12.3719 12.5829 12.7961 12.9683 13.1857 13.4055 13.583 13.8071 14.0338 14.217 14.4483 14.6824 14.8716 15.1106 15.3525 15.5481 15.7954 16.0457 16.2482 16.5042 16.7636 16.9735 17.2389 17.508 17.7258 18.0015 18.2809 18.5074 18.794 19.0848 19.3204 19.619 19.922 20.1677 20.4792 20.7955 21.0522 21.3777 21.7086 21.9773 22.3182 22.665 22.9469 23.3048 23.6692 23.9655 24.3421 24.726 25.0384 25.4358 25.8413 26.1716 26.5923 27.0219 27.3724 27.8192 28.2761 28.6493 29.1257 29.6136 30.0126 30.5227 31.0462 31.4749 32.024 32.5884 33.0517 33.6461 34.2586 34.7624 35.4104 36.0799 36.632 37.344 38.0822 38.6929 39.4832 40.3057 40.9888 41.8767 42.8054 43.5805 44.5933 45.6596 46.5554 47.7341 48.986 50.0468 51.4564 52.9722 54.2726 56.0259 57.9464 60.0694 62.4428 65.1334 68.2396 71.9133 76.4097 82.2065 90.3766 104.344 154 2.05769 2.18308 2.30925 2.43622 2.564 2.69259 2.822 2.95225 3.08335 3.21531 3.34814 3.48185 3.61645 3.75196 3.88839 3.9982 4.13631 4.27537 4.38731 4.52812 4.66993 4.78409 4.92771 5.07236 5.18884 5.33539 5.48301 5.60188 5.75148 5.90219 6.02357 6.17634 6.33028 6.45428 6.61036 6.76766 6.89439 7.05393 7.21474 7.34433 7.50749 7.67198 7.80454 7.97149 8.13983 8.27552 8.44642 8.6188 8.75776 8.93283 9.10943 9.25183 9.43126 9.61231 9.75832 9.94234 10.1281 10.2779 10.4667 10.6574 10.8112 11.0051 11.2009 11.359 11.5583 11.7596 11.9221 12.1271 12.3342 12.5014 12.7124 12.9256 13.0978 13.3152 13.5349 13.7125 13.9366 14.1633 14.3465 14.5778 14.8118 15.001 15.2401 15.482 15.6776 15.9249 16.1752 16.3777 16.6337 16.8931 17.1029 17.3684 17.6375 17.8553 18.131 18.4104 18.6368 18.9235 19.2142 19.4499 19.7484 20.0515 20.2972 20.6086 20.925 21.1817 21.5072 21.8381 22.1067 22.4477 22.7945 23.0763 23.4343 23.7986 24.095 24.4716 24.8554 25.1678 25.5653 25.9707 26.3011 26.7218 27.1514 27.5019 27.9487 28.4056 28.7788 29.2551 29.7431 30.1421 30.6522 31.1756 31.6044 32.1535 32.7179 33.1812 33.7756 34.3881 34.8919 35.5399 36.2093 36.7614 37.4735 38.2117 38.8224 39.6127 40.4352 41.1183 42.0061 42.9349 43.71 44.7227 45.7891 46.6848 47.8635 49.1155 50.1763 51.5859 53.1017 54.4021 56.1554 58.0759 60.1989 62.5723 65.2629 68.369 72.0428 76.5392 82.336 90.5061 104.473 154 2.18795 2.31334 2.43951 2.56648 2.69425 2.82284 2.95226 3.08251 3.21361 3.34557 3.4784 3.61211 3.74671 3.88222 4.01865 4.12846 4.26656 4.40563 4.51757 4.65838 4.80018 4.91435 5.05797 5.20262 5.3191 5.46564 5.61326 5.73214 5.88173 6.03245 6.15383 6.3066 6.46054 6.58454 6.74062 6.89792 7.02465 7.18419 7.345 7.47459 7.63774 7.80224 7.9348 8.10175 8.27008 8.40577 8.57668 8.74905 8.88802 9.06309 9.23969 9.38209 9.56152 9.74256 9.88858 10.0726 10.2583 10.4081 10.597 10.7876 10.9414 11.1354 11.3312 11.4892 11.6885 11.8898 12.0523 12.2573 12.4644 12.6316 12.8426 13.0559 13.2281 13.4455 13.6652 13.8427 14.0669 14.2935 14.4767 14.7081 14.9421 15.1313 15.3703 15.6122 15.8079 16.0551 16.3054 16.5079 16.764 17.0233 17.2332 17.4987 17.7677 17.9856 18.2612 18.5407 18.7671 19.0537 19.3445 19.5802 19.8787 20.1817 20.4275 20.7389 21.0552 21.3119 21.6375 21.9683 22.237 22.578 22.9248 23.2066 23.5645 23.9289 24.2252 24.6019 24.9857 25.2981 25.6956 26.101 26.4313 26.852 27.2817 27.6321 28.0789 28.5359 28.909 29.3854 29.8733 30.2723 30.7825 31.3059 31.7346 32.2837 32.8482 33.3114 33.9059 34.5184 35.0221 35.6701 36.3396 36.8917 37.6038 38.342 38.9526 39.7429 40.5655 41.2486 42.1364 43.0651 43.8402 44.853 45.9194 46.8151 47.9938 49.2457 50.3065 51.7162 53.2319 54.5324 56.2857 58.2062 60.3292 62.7025 65.3932 68.4993 72.1731 76.6694 82.4662 90.6363 104.603 154 2.31899 2.44438 2.57055 2.69752 2.82529 2.95388 3.0833 3.21355 3.34465 3.47661 3.60944 3.74315 3.87775 4.01326 4.14969 4.2595 4.39761 4.53667 4.64861 4.78942 4.93123 5.04539 5.18901 5.33366 5.45014 5.59668 5.7443 5.86318 6.01278 6.16349 6.28487 6.43764 6.59158 6.71558 6.87166 7.02896 7.15569 7.31523 7.47604 7.60563 7.76878 7.93328 8.06584 8.23279 8.40112 8.53681 8.70772 8.88009 9.01906 9.19413 9.37073 9.51313 9.69256 9.87361 10.0196 10.2036 10.3894 10.5392 10.728 10.9187 11.0725 11.2664 11.4622 11.6203 11.8196 12.0209 12.1834 12.3884 12.5955 12.7627 12.9737 13.1869 13.3591 13.5765 13.7962 13.9738 14.1979 14.4246 14.6078 14.8391 15.0731 15.2623 15.5014 15.7433 15.9389 16.1861 16.4365 16.639 16.895 17.1544 17.3642 17.6297 17.8988 18.1166 18.3923 18.6717 18.8981 19.1848 19.4755 19.7112 20.0097 20.3128 20.5585 20.8699 21.1863 21.443 21.7685 22.0994 22.368 22.709 23.0558 23.3376 23.6956 24.0599 24.3563 24.7329 25.1167 25.4291 25.8266 26.232 26.5624 26.9831 27.4127 27.7632 28.21 28.6669 29.0401 29.5164 30 30.4034 30.9135 31.4369 31.8657 32.4148 32.9792 33.4425 34.0369 34.6494 35.1532 35.8011 36.4706 37.0227 37.7348 38.473 39.0837 39.874 40.6965 41.3796 42.2674 43.1962 43.9713 44.984 46.0504 46.9461 48.1248 49.3768 50.4376 51.8472 53.363 54.6634 56.4167 58.3372 60.4602 62.8336 65.5242 68.6303 72.3041 76.8005 82.5973 90.7674 104.734 154 2.45082 2.57621 2.70238 2.82935 2.95713 3.08572 3.21513 3.34539 3.47649 3.60844 3.74127 3.87498 4.00959 4.14509 4.28152 4.39133 4.52944 4.6685 4.78044 4.92126 5.06306 5.17722 5.32084 5.4655 5.58197 5.72852 5.87614 5.99502 6.14461 6.29532 6.4167 6.56947 6.72341 6.84741 7.00349 7.16079 7.28752 7.44706 7.60788 7.73746 7.90062 8.06511 8.19767 8.36462 8.53296 8.66865 8.83956 9.01193 9.15089 9.32596 9.50256 9.64496 9.82439 10.0054 10.1515 10.3355 10.5212 10.671 10.8599 11.0505 11.2043 11.3982 11.5941 11.7521 11.9514 12.1527 12.3152 12.5202 12.7273 12.8945 13.1055 13.3187 13.491 13.7083 13.9281 14.1056 14.3298 14.5564 14.7396 14.9709 15.205 15.3942 15.6332 15.8751 16.0707 16.318 16.5683 16.7708 17.0268 17.2862 17.4961 17.7616 18.0306 18.2484 18.5241 18.8036 19.03 19.3166 19.6074 19.8431 20.1416 20.4446 20.6903 21 21.3163 21.5748 21.9003 22.2312 22.4999 22.8408 23.1877 23.4695 23.8274 24.1918 24.4881 24.8647 25.2486 25.561 25.9584 26.3639 26.6942 27.1149 27.5445 27.895 28.3418 28.7987 29.1719 29.6483 30.1362 30.5352 31.0454 31.5688 31.9975 32.5466 33.1111 33.5743 34.1687 34.7812 35.285 35.933 36.6025 37.1546 37.8667 38.6048 39.2155 40.0058 40.8283 41.5115 42.3993 43.328 44.1031 45.1159 46.1823 47.078 48.2567 49.5086 50.5694 51.9791 53.4948 54.7953 56.5485 58.469 60.5921 62.9654 65.656 68.7622 72.436 76.9323 82.7291 90.8992 104.866 154 2.58345 2.70884 2.83502 2.96199 3.08976 3.21835 3.34777 3.47802 3.60912 3.74108 3.87391 4.00762 4.14222 4.27773 4.41415 4.52396 4.66207 4.80113 4.91308 5.05389 5.19569 5.30986 5.45348 5.59813 5.7146 5.86115 6.00877 6.12765 6.27724 6.42795 6.54934 6.70211 6.85604 6.98004 7.13612 7.29342 7.42015 7.57969 7.74051 7.87009 8.03325 8.19774 8.33031 8.49725 8.66559 8.80128 8.97219 9.14456 9.28353 9.45859 9.63519 9.7776 9.95703 10.1381 10.2841 10.4681 10.6538 10.8036 10.9925 11.1831 11.3369 11.5309 11.7267 11.8847 12.084 12.2853 12.4478 12.6528 12.8599 13.0271 13.2381 13.4514 13.6236 13.841 14.0607 14.2382 14.4624 14.689 14.8722 15.1036 15.3376 15.5268 15.7658 16.0077 16.2034 16.4506 16.7009 16.9034 17.1595 17.4188 17.6287 17.8942 18.1632 18.3811 18.6567 18.9362 19.1626 19.4492 19.74 19.9757 20.2742 20.5772 20.823 21.1344 21.4507 21.7074 22.033 22.3638 22.6325 22.9735 23.3203 23.6021 23.96 24.3244 24.6207 24.9974 25.3812 25.6936 26.0911 26.4965 26.8268 27.2475 27.6772 28.0276 28.4744 28.9314 29.3045 29.7809 30.2688 30.6678 31.178 31.7014 32.1301 32.6792 33.2437 33.7069 34.3014 34.9139 35.4176 36.0656 36.7351 37.2872 37.9993 38.7375 39.3481 40.1384 40.961 41.6441 42.5319 43.4606 44.2357 45.2485 46.3149 47.2106 48.3893 49.6413 50.702 52.1117 53.6274 54.9279 56.6812 58.6017 60.7247 63.098 65.7887 68.8948 72.5686 77.0649 82.8617 91.0318 104.999 154 2.7169 2.84229 2.96846 3.09543 3.22321 3.3518 3.48121 3.61146 3.74256 3.87452 4.00735 4.14106 4.27566 4.41117 4.5476 4.65741 4.79552 4.93458 5.04652 5.18733 5.32914 5.4433 5.58692 5.73157 5.84805 5.9946 6.14221 6.26109 6.41069 6.5614 6.68278 6.83555 6.98949 7.11349 7.26957 7.42687 7.5536 7.71314 7.87395 8.00354 8.1667 8.33119 8.46375 8.6307 8.79904 8.93473 9.10563 9.27801 9.41697 9.59204 9.76864 9.91104 10.0905 10.2715 10.4175 10.6016 10.7873 10.9371 11.1259 11.3166 11.4704 11.6643 11.8601 12.0182 12.2175 12.4188 12.5813 12.7863 12.9934 13.1606 13.3716 13.5848 13.757 13.9744 14.1942 14.3717 14.5958 14.8225 15.0057 15.237 15.4711 15.6603 15.8993 16.1412 16.3368 16.5841 16.8344 17.0369 17.2929 17.5523 17.7622 18.0276 18.2967 18.5145 18.7902 19.0696 19.2961 19.5827 19.8735 20.1091 20.4077 20.7107 20.9564 21.2678 21.5842 21.8409 22.1664 22.4973 22.766 23.1069 23.4537 23.7356 24.0935 24.4579 24.7542 25.1308 25.5146 25.8271 26.2245 26.63 26.9603 27.381 27.8106 28.1611 28.6079 29.0648 29.438 29.9143 30.4023 30.8013 31.3114 31.8348 32.2636 32.8127 33.3771 33.8404 34.4348 35.0473 35.5511 36.1991 36.8686 37.4206 38.1327 38.8709 39.4816 40.2719 41.0944 41.7775 42.6654 43.5941 44.3692 45.382 46.4483 47.344 48.5227 49.7747 50.8355 52.2451 53.7609 55.0613 56.8146 58.7351 60.8581 63.2315 65.9221 69.0283 72.702 77.1984 82.9952 91.1653 105.132 154 2.85116 2.97655 3.10273 3.2297 3.35747 3.48606 3.61548 3.74573 3.87683 4.00879 4.14162 4.27533 4.40993 4.54544 4.68186 4.79167 4.92978 5.06884 5.18079 5.3216 5.4634 5.57757 5.72119 5.86584 5.98232 6.12886 6.27648 6.39536 6.54495 6.69566 6.81705 6.96982 7.12375 7.24775 7.40383 7.56113 7.68786 7.84741 8.00822 8.1378 8.30096 8.46545 8.59802 8.76496 8.9333 9.06899 9.2399 9.41227 9.55124 9.7263 9.9029 10.0453 10.2247 10.4058 10.5518 10.7358 10.9215 11.0713 11.2602 11.4508 11.6046 11.7986 11.9944 12.1524 12.3518 12.5531 12.7156 12.9205 13.1276 13.2949 13.5059 13.7191 13.8913 14.1087 14.3284 14.506 14.7301 14.9568 15.1399 15.3713 15.6053 15.7945 16.0336 16.2755 16.4711 16.7183 16.9686 17.1712 17.4272 17.6865 17.8964 18.1619 18.4309 18.6488 18.9244 19.2039 19.4303 19.717 20.0077 20.2434 20.5419 20.8449 21.0907 21.4021 21.7184 21.9751 22.3007 22.6315 22.9002 23.2412 23.588 23.8698 24.2277 24.5921 24.8884 25.2651 25.6489 25.9613 26.3588 26.7642 27.0946 27.5152 27.9449 28.2953 28.7421 29.1991 29.5722 30.048