<?xml version="1.0"?><VTKFile type="PolyData" version="0.1" byte_order="LittleEndian">
<PolyData>
<Piece NumberOfLines="84" NumberOfPoints="4573">
<PointData Scalars=" PointData">
<DataArray type="Float32" Name="time" NumberOfComponents="1" format="ascii" >
0 0.045502 0.091099 0.136792 0.18258 0.228465 0.274446 0.302082 0.348219 0.394453 0.422241 0.468633 0.515124 0.543067 0.589716 0.636466 0.664565 0.711475 0.758487 0.786743 0.833917 0.881194 0.909609 0.95705 1.00459 1.03317 1.08088 1.1287 1.15744 1.20542 1.25351 1.28242 1.33067 1.37904 1.40811 1.45665 1.5053 1.53454 1.58336 1.63229 1.6617 1.71081 1.76003 1.78961 1.83901 1.88851 1.91827 1.96796 2.01776 2.0477 2.09768 2.14778 2.1779 2.22818 2.27858 2.30888 2.35947 2.41017 2.44065 2.49154 2.54256 2.57322 2.62443 2.67575 2.7066 2.75812 2.80976 2.84081 2.89264 2.9446 2.97584 3.028 3.08028 3.11171 3.1642 3.21681 3.24844 3.30125 3.3542 3.38603 3.43918 3.49246 3.52449 3.57798 3.6316 3.66383 3.71767 3.77163 3.80407 3.85825 3.91257 3.94522 3.99975 4.05442 4.08729 4.14218 4.1972 4.23029 4.28554 4.34093 4.37423 4.42985 4.4856 4.51913 4.57511 4.63125 4.66499 4.72136 4.77787 4.81184 4.86859 4.92548 4.95969 5.01682 5.0741 5.10854 5.16606 5.22373 5.25841 5.31633 5.3744 5.40932 5.46764 5.52612 5.56129 5.62002 5.6789 5.71431 5.77346 5.83276 5.86842 5.92799 5.98771 6.02363 6.08362 6.14377 6.17994 6.24037 6.30096 6.33739 6.39825 6.45928 6.49598 6.55728 6.61876 6.65573 6.71749 6.77942 6.81666 6.87887 6.94126 6.97878 7.04146 7.10432 7.14212 7.20527 7.26861 7.30669 7.37032 7.43414 7.47252 7.53663 7.60093 7.63961 7.70422 7.76902 7.80799 7.8731 7.9384 7.97768 8.0433 8.10911 8.1487 8.21484 8.28117 8.32107 8.38773 8.4546 8.49482 8.56201 8.62941 8.66995 8.73769 8.80564 8.84651 8.9148 8.9833 9.02451 9.09336 9.16242 9.20397 9.27339 9.34303 9.38492 9.45492 9.52514 9.56738 9.63797 9.70878 9.75138 9.82257 9.89399 9.93695 10.0087 10.0808 10.1241 10.1965 10.2692 10.3129 10.3859 10.4592 10.5033 10.577 10.6509 10.6954 10.7697 10.8443 10.8892 10.9642 11.0395 11.0848 11.1604 11.2364 11.2821 11.3584 11.4351 11.4812 11.5583 11.6356 11.6821 11.7599 11.838 11.885 11.9635 12.0423 12.0897 12.1689 12.2485 12.2963 12.3763 12.4566 12.505 12.5857 12.6668 12.7156 12.7972 12.879 12.9283 13.0107 13.0934 13.1431 13.2263 13.3098 13.36 13.4441 13.5284 13.5792 13.664 13.7492 13.8005 13.8862 13.9723 14 0.552389 0.677778 0.803952 0.930922 1.0587 1.18729 1.3167 1.44696 1.57806 1.71001 1.84284 1.97655 2.11116 2.24666 2.38309 2.4929 2.63101 2.77007 2.88201 3.02283 3.16463 3.27879 3.42241 3.56707 3.68354 3.83009 3.97771 4.09659 4.24618 4.39689 4.51827 4.67104 4.82498 4.94898 5.10506 5.26236 5.38909 5.54863 5.70945 5.83903 6.00219 6.16668 6.29924 6.46619 6.63453 6.77022 6.94113 7.1135 7.25246 7.42753 7.60413 7.74653 7.92596 8.10701 8.25302 8.43704 8.62276 8.77257 8.96142 9.15206 9.30587 9.49981 9.69563 9.85367 10.053 10.2543 10.4168 10.6218 10.8289 10.9961 11.2071 11.4203 11.5925 11.8099 12.0296 12.2072 12.4313 12.658 12.8412 13.0725 13.3065 13.4957 13.7348 13.9767 14 0.673939 0.799328 0.925502 1.05247 1.18025 1.30884 1.43825 1.56851 1.69961 1.83156 1.96439 2.0981 2.23271 2.36821 2.50464 2.61445 2.75256 2.89162 3.00356 3.14438 3.28618 3.40034 3.54396 3.68862 3.80509 3.95164 4.09926 4.21814 4.36773 4.51844 4.63983 4.79259 4.94653 5.07053 5.22661 5.38391 5.51064 5.67018 5.831 5.96058 6.12374 6.28823 6.42079 6.58774 6.75608 6.89177 7.06268 7.23505 7.37401 7.54908 7.72568 7.86808 8.04751 8.22856 8.37457 8.55859 8.74431 8.89412 9.08297 9.27361 9.42742 9.62136 9.81718 9.97522 10.1745 10.3758 10.5383 10.7433 10.9504 11.1176 11.3286 11.5419 11.7141 11.9315 12.1512 12.3287 12.5529 12.7795 12.9627 13.1941 13.4281 13.6173 13.8563 14 0.79617 0.921559 1.04773 1.1747 1.30248 1.43107 1.56048 1.69074 1.82184 1.95379 2.08662 2.22033 2.35494 2.49044 2.62687 2.73668 2.87479 3.01385 3.1258 3.26661 3.40841 3.52257 3.66619 3.81085 3.92732 4.07387 4.22149 4.34037 4.48996 4.64067 4.76206 4.91482 5.06876 5.19276 5.34884 5.50614 5.63287 5.79241 5.95323 6.08281 6.24597 6.41046 6.54303 6.70997 6.87831 7.014 7.18491 7.35728 7.49624 7.67131 7.84791 7.99031 8.16975 8.35079 8.4968 8.68082 8.86654 9.01635 9.2052 9.39584 9.54966 9.74359 9.93942 10.0975 10.2968 10.4981 10.6606 10.8656 11.0726 11.2399 11.4509 11.6641 11.8363 12.0537 12.2734 12.451 12.6751 12.9018 13.0849 13.3163 13.5503 13.7395 13.9786 14 0.919089 1.04448 1.17065 1.29762 1.4254 1.55399 1.6834 1.81366 1.94476 2.07671 2.20954 2.34325 2.47786 2.61336 2.74979 2.8596 2.99771 3.13677 3.24871 3.38953 3.53133 3.64549 3.78911 3.93377 4.05024 4.19679 4.34441 4.46329 4.61288 4.76359 4.88498 5.03774 5.19168 5.31568 5.47176 5.62906 5.75579 5.91533 6.07615 6.20573 6.36889 6.53338 6.66594 6.83289 7 7.13692 7.30783 7.4802 7.61916 7.79423 7.97083 8.11323 8.29266 8.47371 8.61972 8.80374 8.98946 9.13927 9.32812 9.51876 9.67257 9.86651 10.0623 10.2204 10.4197 10.621 10.7835 10.9885 11.1956 11.3628 11.5738 11.787 11.9592 12.1766 12.3963 12.5739 12.798 13.0247 13.2079 13.4392 13.6732 13.8624 14 1.04271 1.16809 1.29427 1.42124 1.54901 1.6776 1.80702 1.93727 2.06837 2.20033 2.33316 2.46687 2.60147 2.73698 2.87341 2.98322 3.12132 3.26039 3.37233 3.51314 3.65494 3.76911 3.91273 4.05738 4.17386 4.3204 4.46802 4.5869 4.73649 4.88721 5.00859 5.16136 5.31529 5.4393 5.59538 5.75268 5.87941 6.03895 6.19976 6.32935 6.4925 6.65699 6.78956 6.9565 7.12484 7.26053 7.43144 7.60381 7.74278 7.91785 8.09445 8.23685 8.41628 8.59732 8.74334 8.92736 9.11307 9.26289 9.45174 9.64237 9.79619 9.99013 10.186 10.344 10.5433 10.7446 10.9071 11.1121 11.3192 11.4864 11.6974 11.9106 12.0829 12.3002 12.52 12.6975 12.9216 13.1483 13.3315 13.5628 13.7969 13.9861 14 1.16703 1.29242 1.41859 1.54556 1.67333 1.80192 1.93134 2.06159 2.19269 2.32465 2.45748 2.59119 2.72579 2.8613 2.99773 3.10754 3.24564 3.38471 3.49665 3.63746 3.77926 3.89343 4.03705 4.1817 4.29818 4.44472 4.59234 4.71122 4.86082 5.01153 5.13291 5.28568 5.43962 5.56362 5.7197 5.877 6.00373 6.16327 6.32408 6.45367 6.61682 6.78132 6.91388 7.08083 7.24916 7.38485 7.55576 7.72813 7.8671 8.04217 8.21877 8.36117 8.5406 8.72164 8.86766 9.05168 9.2374 9.38721 9.57606 9.76669 9.92051 10.1144 10.3103 10.4683 10.6676 10.8689 11.0314 11.2364 11.4435 11.6107 11.8217 12.0349 12.2072 12.4245 12.6443 12.8218 13.046 13.2726 13.4558 13.6871 13.9212 14 1.29206 1.41745 1.54362 1.67059 1.79837 1.92696 2.05637 2.18663 2.31773 2.44968 2.58251 2.71622 2.85083 2.98633 3.12276 3.23257 3.37068 3.50974 3.62168 3.7625 3.9043 4.01846 4.16208 4.30674 4.42321 4.56976 4.71738 4.83626 4.98585 5.13656 5.25795 5.41071 5.56465 5.68865 5.84473 6.00203 6.12876 6.2883 6.44912 6.5787 6.74186 6.90635 7.03891 7.20586 7.3742 7.50989 7.6808 7.85317 7.99213 8.1672 8.3438 8.4862 8.66563 8.84668 8.99269 9.17671 9.36243 9.51224 9.70109 9.89173 10.0455 10.2395 10.4353 10.5933 10.7927 10.994 11.1565 11.3614 11.5685 11.7358 11.9468 12.16 12.3322 12.5496 12.7693 12.9469 13.171 13.3977 13.5808 13.8122 14 1.41781 1.5432 1.66938 1.79635 1.92412 2.05271 2.18213 2.31238 2.44348 2.57544 2.70827 2.84198 2.97658 3.11209 3.24851 3.35832 3.49643 3.63549 3.74744 3.88825 4.03005 4.14422 4.28784 4.43249 4.54896 4.69551 4.84313 4.96201 5.1116 5.26231 5.3837 5.53647 5.6904 5.8144 5.97048 6.12778 6.25451 6.41405 6.57487 6.70445 6.86761 7.0321 7.16467 7.33161 7.49995 7.63564 7.80655 7.97892 8.11789 8.29295 8.46955 8.61196 8.79139 8.97243 9.11845 9.30247 9.48818 9.638 9.82684 10.0175 10.1713 10.3652 10.5611 10.7191 10.9184 11.1197 11.2822 11.4872 11.6943 11.8615 12.0725 12.2857 12.458 12.6753 12.8951 13.0726 13.2967 13.5234 13.7066 13.9379 14 1.54429 1.66968 1.79586 1.92283 2.0506 2.17919 2.30861 2.43886 2.56996 2.70192 2.83475 2.96846 3.10306 3.23857 3.375 3.4848 3.62291 3.76198 3.87392 4.01473 4.15653 4.2707 4.41432 4.55897 4.67545 4.82199 4.96961 5.08849 5.23808 5.3888 5.51018 5.66295 5.81688 5.94088 6.09697 6.25427 6.381 6.54054 6.70135 6.83093 6.99409 7.15858 7.29115 7.45809 7.62643 7.76212 7.93303 8.1054 8.24437 8.41944 8.59604 8.73844 8.91787 9.09891 9.24493 9.42895 9.61466 9.76448 9.95333 10.144 10.2978 10.4917 10.6875 10.8456 11.0449 11.2462 11.4087 11.6137 11.8208 11.988 12.199 12.4122 12.5844 12.8018 13.0216 13.1991 13.4232 13.6499 13.8331 14 1.67151 1.7969 1.92308 2.05005 2.17782 2.30641 2.43583 2.56608 2.69718 2.82914 2.96197 3.09568 3.23028 3.36579 3.50222 3.61202 3.75013 3.8892 4.00114 4.14195 4.28375 4.39792 4.54154 4.68619 4.80267 4.94921 5.09683 5.21571 5.3653 5.51602 5.6374 5.79017 5.9441 6.0681 6.22419 6.38149 6.50822 6.66776 6.82857 6.95815 7.12131 7.2858 7.41837 7.58531 7.75365 7.88934 8.06025 8.23262 8.37159 8.54666 8.72326 8.86566 9.04509 9.22613 9.37215 9.55617 9.74188 9.8917 10.0805 10.2712 10.425 10.6189 10.8148 10.9728 11.1721 11.3734 11.5359 11.7409 11.948 12.1152 12.3262 12.5394 12.7117 12.929 13.1488 13.3263 13.5504 13.7771 13.9603 14 1.79948 1.92487 2.05104 2.17801 2.30579 2.43438 2.5638 2.69405 2.82515 2.95711 3.08993 3.22364 3.35825 3.49376 3.63018 3.73999 3.8781 4.01716 4.12911 4.26992 4.41172 4.52588 4.66951 4.81416 4.93063 5.07718 5.2248 5.34368 5.49327 5.64398 5.76537 5.91814 6.07207 6.19607 6.35215 6.50945 6.63618 6.79572 6.95654 7.08612 7.24928 7.41377 7.54634 7.71328 7.88162 8.01731 8.18822 8.36059 8.49956 8.67462 8.85122 8.99363 9.17306 9.3541 9.50012 9.68413 9.86985 10.0197 10.2085 10.3991 10.553 10.7469 10.9427 11.1008 11.3001 11.5014 11.6639 11.8689 12.076 12.2432 12.4542 12.6674 12.8396 13.057 13.2767 13.4543 13.6784 13.9051 14 1.9282 2.05359 2.17977 2.30674 2.43451 2.5631 2.69252 2.82277 2.95387 3.08583 3.21866 3.35237 3.48697 3.62248 3.7589 3.86871 4.00682 4.14588 4.25783 4.39864 4.54044 4.65461 4.79823 4.94288 5.05935 5.2059 5.35352 5.4724 5.62199 5.7727 5.89409 6.04686 6.20079 6.32479 6.48087 6.63817 6.7649 6.92444 7.08526 7.21484 7.378 7.54249 7.67506 7.842 8.01034 8.14603 8.31694 8.48931 8.62828 8.80334 8.97994 9.12235 9.30178 9.48282 9.62884 9.81286 9.99857 10.1484 10.3372 10.5279 10.6817 10.8756 11.0714 11.2295 11.4288 11.6301 11.7926 11.9976 12.2047 12.3719 12.5829 12.7961 12.9683 13.1857 13.4055 13.583 13.8071 14 2.05769 2.18308 2.30925 2.43622 2.564 2.69259 2.822 2.95225 3.08335 3.21531 3.34814 3.48185 3.61645 3.75196 3.88839 3.9982 4.13631 4.27537 4.38731 4.52812 4.66993 4.78409 4.92771 5.07236 5.18884 5.33539 5.48301 5.60188 5.75148 5.90219 6.02357 6.17634 6.33028 6.45428 6.61036 6.76766 6.89439 7.05393 7.21474 7.34433 7.50749 7.67198 7.80454 7.97149 8.13983 8.27552 8.44642 8.6188 8.75776 8.93283 9.10943 9.25183 9.43126 9.61231 9.75832 9.94234 10.1281 10.2779 10.4667 10.6574 10.8112 11.0051 11.2009 11.359 11.5583 11.7596 11.9221 12.1271 12.3342 12.5014 12.7124 12.9256 13.0978 13.3152 13.5349 13.7125 13.9366 14 2.18795 2.31334 2.43951 2.56648 2.69425 2.82284 2.95226 3.08251 3.21361 3.34557 3.4784 3.61211 3.74671 3.88222 4.01865 4.12846 4.26656 4.40563 4.51757 4.65838 4.80018 4.91435 5.05797 5.20262 5.3191 5.46564 5.61326 5.73214 5.88173 6.03245 6.15383 6.3066 6.46054 6.58454 6.74062 6.89792 7.02465 7.18419 7.345 7.47459 7.63774 7.80224 7.9348 8.10175 8.27008 8.40577 8.57668 8.74905 8.88802 9.06309 9.23969 9.38209 9.56152 9.74256 9.88858 10.0726 10.2583 10.4081 10.597 10.7876 10.9414 11.1354 11.3312 11.4892 11.6885 11.8898 12.0523 12.2573 12.4644 12.6316 12.8426 13.0559 13.2281 13.4455 13.6652 13.8427 14 2.31899 2.44438 2.57055 2.69752 2.82529 2.95388 3.0833 3.21355 3.34465 3.47661 3.60944 3.74315 3.87775 4.01326 4.14969 4.2595 4.39761 4.53667 4.64861 4.78942 4.93123 5.04539 5.18901 5.33366 5.45014 5.59668 5.7443 5.86318 6.01278 6.16349 6.28487 6.43764 6.59158 6.71558 6.87166 7.02896 7.15569 7.31523 7.47604 7.60563 7.76878 7.93328 8.06584 8.23279 8.40112 8.53681 8.70772 8.88009 9.01906 9.19413 9.37073 9.51313 9.69256 9.87361 10.0196 10.2036 10.3894 10.5392 10.728 10.9187 11.0725 11.2664 11.4622 11.6203 11.8196 12.0209 12.1834 12.3884 12.5955 12.7627 12.9737 13.1869 13.3591 13.5765 13.7962 13.9738 14 2.45082 2.57621 2.70238 2.82935 2.95713 3.08572 3.21513 3.34539 3.47649 3.60844 3.74127 3.87498 4.00959 4.14509 4.28152 4.39133 4.52944 4.6685 4.78044 4.92126 5.06306 5.17722 5.32084 5.4655 5.58197 5.72852 5.87614 5.99502 6.14461 6.29532 6.4167 6.56947 6.72341 6.84741 7.00349 7.16079 7.28752 7.44706 7.60788 7.73746 7.90062 8.06511 8.19767 8.36462 8.53296 8.66865 8.83956 9.01193 9.15089 9.32596 9.50256 9.64496 9.82439 10.0054 10.1515 10.3355 10.5212 10.671 10.8599 11.0505 11.2043 11.3982 11.5941 11.7521 11.9514 12.1527 12.3152 12.5202 12.7273 12.8945 13.1055 13.3187 13.491 13.7083 13.9281 14 2.58345 2.70884 2.83502 2.96199 3.08976 3.21835 3.34777 3.47802 3.60912 3.74108 3.87391 4.00762 4.14222 4.27773 4.41415 4.52396 4.66207 4.80113 4.91308 5.05389 5.19569 5.30986 5.45348 5.59813 5.7146 5.86115 6.00877 6.12765 6.27724 6.42795 6.54934 6.70211 6.85604 6.98004 7.13612 7.29342 7.42015 7.57969 7.74051 7.87009 8.03325 8.19774 8.33031 8.49725 8.66559 8.80128 8.97219 9.14456 9.28353 9.45859 9.63519 9.7776 9.95703 10.1381 10.2841 10.4681 10.6538 10.8036 10.9925 11.1831 11.3369 11.5309 11.7267 11.8847 12.084 12.2853 12.4478 12.6528 12.8599 13.0271 13.2381 13.4514 13.6236 13.841 14 2.7169 2.84229 2.96846 3.09543 3.22321 3.3518 3.48121 3.61146 3.74256 3.87452 4.00735 4.14106 4.27566 4.41117 4.5476 4.65741 4.79552 4.93458 5.04652 5.18733 5.32914 5.4433 5.58692 5.73157 5.84805 5.9946 6.14221 6.26109 6.41069 6.5614 6.68278 6.83555 6.98949 7.11349 7.26957 7.42687 7.5536 7.71314 7.87395 8.00354 8.1667 8.33119 8.46375 8.6307 8.79904 8.93473 9.10563 9.27801 9.41697 9.59204 9.76864 9.91104 10.0905 10.2715 10.4175 10.6016 10.7873 10.9371 11.1259 11.3166 11.4704 11.6643 11.8601 12.0182 12.2175 12.4188 12.5813 12.7863 12.9934 13.1606 13.3716 13.5848 13.757 13.9744 14 2.85116 2.97655 3.10273 3.2297 3.35747 3.48606 3.61548 3.74573 3.87683 4.00879 4.14162 4.27533 4.40993 4.54544 4.68186 4.79167 4.92978 5.06884 5.18079 5.3216 5.4634 5.57757 5.72119 5.86584 5.98232 6.12886 6.27648 6.39536 6.54495 6.69566 6.81705 6.96982 7.12375 7.24775 7.40383 7.56113 7.68786 7.84741 8.00822 8.1378 8.30096 8.46545 8.59802 8.76496 8.9333 9.06899 9.2399 9.41227 9.55124 9.7263 9.9029 10.0453 10.2247 10.4058 10.5518 10.7358 10.9215 11.0713 11.2602 11.4508 11.6046 11.7986 11.9944 12.1524 12.3518 12.5531 12.7156 12.9205 13.1276 13.2949 13.5059 13.7191 13.8913 14 2.98626 3.11165 3.23782 3.36479 3.49257 3.62116 3.75058 3.88083 4.01193 4.14389 4.27671 4.41042 4.54503 4.68054 4.81696 4.92677 5.06488 5.20394 5.31589 5.4567 5.5985 5.71266 5.85629 6.00094 6.11741 6.26396 6.41158 6.53046 6.68005 6.83076 6.95215 7.10492 7.25885 7.38285 7.53893 7.69623 7.82296 7.9825 8.14332 8.2729 8.43606 8.60055 8.73312 8.90006 9.0684 9.20409 9.375 9.54737 9.68633 9.8614 10.038 10.1804 10.3598 10.5409 10.6869 10.8709 11.0566 11.2064 11.3953 11.5859 11.7397 11.9337 12.1295 12.2875 12.4869 12.6882 12.8507 13.0556 13.2627 13.43 13.641 13.8542 14 3.1222 3.24759 3.37376 3.50073 3.62851 3.7571 3.88651 4.01677 4.14787 4.27983 4.41265 4.54636 4.68097 4.81647 4.9529 5.06271 5.20082 5.33988 5.45183 5.59264 5.73444 5.8486 5.99223 6.13688 6.25335 6.3999 6.54752 6.6664 6.81599 6.9667 7.08809 7.24085 7.39479 7.51879 7.67487 7.83217 7.9589 8.11844 8.27926 8.40884 8.572 8.73649 8.86906 9.036 9.20434 9.34003 9.51094 9.68331 9.82227 9.99734 10.1739 10.3163 10.4958 10.6768 10.8228 11.0069 11.1926 11.3424 11.5312 11.7219 11.8757 12.0696 12.2654 12.4235 12.6228 12.8241 12.9866 13.1916 13.3987 13.5659 13.7769 13.9901 14 3.25899 3.38438 3.51056 3.63753 3.7653 3.89389 4.02331 4.15356 4.28466 4.41662 4.54945 4.68316 4.81776 4.95327 5.08969 5.1995 5.33761 5.47667 5.58862 5.72943 5.87123 5.9854 6.12902 6.27367 6.39014 6.53669 6.68431 6.80319 6.95278 7.10349 7.22488 7.37765 7.53158 7.65558 7.81166 7.96896 8.09569 8.25523 8.41605 8.54563 8.70879 8.87328 9.00585 9.17279 9.34113 9.47682 9.64773 9.8201 9.95907 10.1341 10.3107 10.4531 10.6326 10.8136 10.9596 11.1436 11.3294 11.4792 11.668 11.8587 12.0125 12.2064 12.4022 12.5603 12.7596 12.9609 13.1234 13.3284 13.5355 13.7027 13.9137 14 3.39665 3.52204 3.64821 3.77518 3.90295 4.03154 4.16096 4.29121 4.42231 4.55427 4.6871 4.82081 4.95541 5.09092 5.22735 5.33716 5.47527 5.61433 5.72627 5.86708 6.00889 6.12305 6.26667 6.41132 6.5278 6.67434 6.82196 6.94084 7.09044 7.24115 7.36253 7.5153 7.66924 7.79324 7.94932 8.10662 8.23335 8.39289 8.5537 8.68329 8.84644 9.01094 9.1435 9.31045 9.47878 9.61447 9.78538 9.95775 10.0967 10.2718 10.4484 10.5908 10.7702 10.9513 11.0973 11.2813 11.467 11.6168 11.8057 11.9963 12.1501 12.3441 12.5399 12.6979 12.8972 13.0985 13.261 13.466 13.6731 13.8403 14 3.53517 3.66056 3.78674 3.91371 4.04148 4.17007 4.29949 4.42974 4.56084 4.6928 4.82563 4.95934 5.09394 5.22945 5.36588 5.47568 5.61379 5.75286 5.8648 6.00561 6.14741 6.26158 6.4052 6.54985 6.66633 6.81287 6.96049 7.07937 7.22896 7.37968 7.50106 7.65383 7.80776 7.93176 8.08785 8.24515 8.37188 8.53142 8.69223 8.82181 8.98497 9.14946 9.28203 9.44897 9.61731 9.753 9.92391 10.0963 10.2352 10.4103 10.5869 10.7293 10.9088 11.0898 11.2358 11.4198 11.6055 11.7554 11.9442 12.1348 12.2887 12.4826 12.6784 12.8365 13.0358 13.2371 13.3996 13.6046 13.8117 13.9789 14 3.67459 3.79998 3.92615 4.05312 4.1809 4.30949 4.4389 4.56916 4.70026 4.83221 4.96504 5.09875 5.23336 5.36886 5.50529 5.6151 5.75321 5.89227 6.00421 6.14503 6.28683 6.40099 6.54461 6.68927 6.80574 6.95229 7.09991 7.21879 7.36838 7.51909 7.64048 7.79324 7.94718 8.07118 8.22726 8.38456 8.51129 8.67083 8.83165 8.96123 9.12439 9.28888 9.42144 9.58839 9.75673 9.89242 10.0633 10.2357 10.3747 10.5497 10.7263 10.8687 11.0482 11.2292 11.3752 11.5592 11.745 11.8948 12.0836 12.2743 12.4281 12.622 12.8178 12.9759 13.1752 13.3765 13.539 13.744 13.9511 14 3.8149 3.94029 4.06646 4.19343 4.32121 4.4498 4.57921 4.70947 4.84057 4.97252 5.10535 5.23906 5.37367 5.50917 5.6456 5.75541 5.89352 6.03258 6.14452 6.28534 6.42714 6.5413 6.68492 6.82958 6.94605 7.0926 7.24022 7.3591 7.50869 7.6594 7.78079 7.93355 8.08749 8.21149 8.36757 8.52487 8.6516 8.81114 8.97196 9.10154 9.2647 9.42919 9.56175 9.7287 9.89704 10.0327 10.2036 10.376 10.515 10.69 10.8666 11.009 11.1885 11.3695 11.5155 11.6996 11.8853 12.0351 12.2239 12.4146 12.5684 12.7623 12.9581 13.1162 13.3155 13.5168 13.6793 13.8843 14 3.95612 4.08151 4.20768 4.33465 4.46243 4.59102 4.72043 4.85068 4.98178 5.11374 5.24657 5.38028 5.51488 5.65039 5.78682 5.89663 6.03474 6.1738 6.28574 6.42655 6.56836 6.68252 6.82614 6.97079 7.08727 7.23382 7.38144 7.50031 7.64991 7.80062 7.922 8.07477 8.22871 8.35271 8.50879 8.66609 8.79282 8.95236 9.11317 9.24276 9.40592 9.57041 9.70297 9.86992 10.0383 10.1739 10.3449 10.5172 10.6562 10.8313 11.0079 11.1503 11.3297 11.5107 11.6568 11.8408 12.0265 12.1763 12.3652 12.5558 12.7096 12.9035 13.0994 13.2574 13.4567 13.658 13.8205 14 4.09826 4.22365 4.34982 4.47679 4.60456 4.73315 4.86257 4.99282 5.12392 5.25588 5.38871 5.52242 5.65702 5.79253 5.92896 6.03877 6.17687 6.31594 6.42788 6.56869 6.71049 6.82466 6.96828 7.11293 7.22941 7.37595 7.52357 7.64245 7.79205 7.94276 8.06414 8.21691 8.37085 8.49485 8.65093 8.80823 8.93496 9.0945 9.25531 9.3849 9.54805 9.71255 9.84511 10.0121 10.1804 10.3161 10.487 10.6594 10.7983 10.9734 11.15 11.2924 11.4718 11.6529 11.7989 11.9829 12.1686 12.3184 12.5073 12.6979 12.8517 13.0457 13.2415 13.3995 13.5989 13.8002 13.9627 14 4.24133 4.36672 4.49289 4.61986 4.74763 4.87622 5.00564 5.13589 5.26699 5.39895 5.53178 5.66549 5.80009 5.9356 6.07203 6.18184 6.31995 6.45901 6.57095 6.71176 6.85357 6.96773 7.11135 7.256 7.37248 7.51902 7.66664 7.78552 7.93512 8.08583 8.20721 8.35998 8.51392 8.63792 8.794 8.9513 9.07803 9.23757 9.39838 9.52797 9.69113 9.85562 9.98818 10.1551 10.3235 10.4592 10.6301 10.8024 10.9414 11.1165 11.2931 11.4355 11.6149 11.7959 11.942 12.126 12.3117 12.4615 12.6504 12.841 12.9948 13.1887 13.3846 13.5426 13.7419 13.9432 14 4.38534 4.51073 4.63691 4.76387 4.89165 5.02024 5.14966 5.27991 5.41101 5.54297 5.6758 5.8095 5.94411 6.07962 6.21604 6.32585 6.46396 6.60302 6.71497 6.85578 6.99758 7.11174 7.25537 7.40002 7.51649 7.66304 7.81066 7.92954 8.07913 8.22984 8.35123 8.504 8.65793 8.78193 8.93801 9.09531 9.22204 9.38158 9.5424 9.67198 9.83514 9.99963 10.1322 10.2991 10.4675 10.6032 10.7741 10.9464 11.0854 11.2605 11.4371 11.5795 11.7589 11.94 12.086 12.27 12.4557 12.6055 12.7944 12.985 13.1388 13.3328 13.5286 13.6866 13.8859 14 4.53031 4.6557 4.78188 4.90885 5.03662 5.16521 5.29463 5.42488 5.55598 5.68794 5.82077 5.95448 6.08908 6.22459 6.36101 6.47082 6.60893 6.74799 6.85994 7 7.1418 7.25672 7.40034 7.54499 7.66146 7.80801 7.95563 8.07451 8.2241 8.37481 8.4962 8.64897 8.8029 8.9269 9.08298 9.24028 9.36701 9.52656 9.68737 9.81695 9.98011 10.1446 10.2772 10.4441 10.6125 10.7481 10.9191 11.0914 11.2304 11.4055 11.5821 11.7245 11.9039 12.0849 12.2309 12.415 12.6007 12.7505 12.9393 13.13 13.2838 13.4777 13.6736 13.8316 14 4.67625 4.80164 4.92782 5.05479 5.18256 5.31115 5.44057 5.57082 5.70192 5.83388 5.96671 6.10042 6.23502 6.37053 6.50696 6.61676 6.75487 6.89394 7.00588 7.14669 7.28849 7.40266 7.54628 7.69093 7.80741 7.95395 8.10157 8.22045 8.37004 8.52076 8.64214 8.79491 8.94884 9.07284 9.22893 9.38623 9.51296 9.6725 9.83331 9.96289 10.1261 10.2905 10.4231 10.5901 10.7584 10.8941 11.065 11.2374 11.3763 11.5514 11.728 11.8704 12.0498 12.2309 12.3769 12.5609 12.7466 12.8964 13.0853 13.2759 13.4297 13.6237 13.8195 13.9775 14 4.82318 4.94857 5.07474 5.20171 5.32949 5.45808 5.58749 5.71775 5.84885 5.9808 6.11363 6.24734 6.38195 6.51745 6.65388 6.76369 6.9018 7.04086 7.1528 7.29362 7.43542 7.54958 7.6932 7.83786 7.95433 8.10088 8.2485 8.36738 8.51697 8.66768 8.78907 8.94183 9.09577 9.21977 9.37585 9.53315 9.65988 9.81942 9.98024 10.1098 10.273 10.4375 10.57 10.737 10.9053 11.041 11.2119 11.3843 11.5233 11.6983 11.8749 12.0173 12.1968 12.3778 12.5238 12.7078 12.8935 13.0434 13.2322 13.4228 13.5767 13.7706 13.9664 14 4.9711 5.09649 5.22266 5.34963 5.47741 5.606 5.73541 5.86567 5.99677 6.12872 6.26155 6.39526 6.52987 6.66537 6.8018 6.91161 7.04972 7.18878 7.30073 7.44154 7.58334 7.6975 7.84112 7.98578 8.10225 8.2488 8.39642 8.5153 8.66489 8.8156 8.93699 9.08975 9.24369 9.36769 9.52377 9.68107 9.8078 9.96734 10.1282 10.2577 10.4209 10.5854 10.718 10.8849 11.0532 11.1889 11.3598 11.5322 11.6712 11.8462 12.0228 12.1652 12.3447 12.5257 12.6717 12.8558 13.0415 13.1913 13.3801 13.5708 13.7246 13.9185 14 5.12003 5.24542 5.37159 5.49856 5.62634 5.75493 5.88434 6.0146 6.1457 6.27766 6.41048 6.54419 6.6788 6.8143 6.95073 7.06054 7.19865 7.33771 7.44966 7.59047 7.73227 7.84643 7.99005 8.13471 8.25118 8.39773 8.54535 8.66423 8.81382 8.96453 9.08592 9.23868 9.39262 9.51662 9.6727 9.83 9.95673 10.1163 10.2771 10.4067 10.5698 10.7343 10.8669 11.0338 11.2022 11.3379 11.5088 11.6811 11.8201 11.9952 12.1718 12.3142 12.4936 12.6746 12.8207 13.0047 13.1904 13.3402 13.5291 13.7197 13.8735 14 5.26998 5.39537 5.52155 5.64852 5.77629 5.90488 6.0343 6.16455 6.29565 6.42761 6.56044 6.69415 6.82875 6.96426 7.10068 7.21049 7.3486 7.48766 7.59961 7.74042 7.88222 7.99639 8.14001 8.28466 8.40114 8.54768 8.6953 8.81418 8.96377 9.11448 9.23587 9.38864 9.54257 9.66657 9.82265 9.97995 10.1067 10.2662 10.427 10.5566 10.7198 10.8843 11.0168 11.1838 11.3521 11.4878 11.6587 11.8311 11.9701 12.1451 12.3217 12.4641 12.6436 12.8246 12.9706 13.1546 13.3404 13.4902 13.679 13.8697 14 5.42097 5.54636 5.67254 5.79951 5.92728 6.05587 6.18529 6.31554 6.44664 6.5786 6.71143 6.84514 6.97974 7.11525 7.25168 7.36149 7.49959 7.63866 7.7506 7.89141 8.03321 8.14738 8.291 8.43565 8.55213 8.69867 8.84629 8.96517 9.11476 9.26548 9.38686 9.53963 9.69356 9.81756 9.97365 10.1309 10.2577 10.4172 10.578 10.7076 10.8708 11.0353 11.1678 11.3348 11.5031 11.6388 11.8097 11.9821 12.121 12.2961 12.4727 12.6151 12.7946 12.9756 13.1216 13.3056 13.4913 13.6412 13.83 14 5.57302 5.69841 5.82458 5.95155 6.07933 6.20792 6.33733 6.46759 6.59869 6.73064 6.86347 6.99718 7.13179 7.26729 7.40372 7.51353 7.65164 7.7907 7.90264 8.04346 8.18526 8.29942 8.44304 8.5877 8.70417 8.85072 8.99834 9.11722 9.26681 9.41752 9.53891 9.69167 9.84561 9.96961 10.1257 10.283 10.4097 10.5693 10.7301 10.8597 11.0228 11.1873 11.3199 11.4868 11.6552 11.7908 11.9618 12.1341 12.2731 12.4482 12.6248 12.7672 12.9466 13.1276 13.2737 13.4577 13.6434 13.7932 13.9821 14 5.72613 5.85152 5.97769 6.10466 6.23244 6.36103 6.49044 6.6207 6.7518 6.88375 7.01658 7.15029 7.2849 7.4204 7.55683 7.66664 7.80475 7.94381 8.05575 8.19657 8.33837 8.45253 8.59615 8.74081 8.85728 9.00383 9.15145 9.27033 9.41992 9.57063 9.69202 9.84478 9.99872 10.1227 10.2788 10.4361 10.5628 10.7224 10.8832 11.0128 11.1759 11.3404 11.473 11.6399 11.8083 11.944 12.1149 12.2872 12.4262 12.6013 12.7779 12.9203 13.0997 13.2807 13.4268 13.6108 13.7965 13.9463 14 5.88032 6.00571 6.13189 6.25886 6.38663 6.51522 6.64464 6.77489 6.90599 7.03795 7.17078 7.30449 7.43909 7.5746 7.71102 7.82083 7.95894 8.098 8.20995 8.35076 8.49256 8.60673 8.75035 8.895 9.01147 9.15802 9.30564 9.42452 9.57411 9.72482 9.84621 9.99898 10.1529 10.2769 10.433 10.5903 10.717 10.8766 11.0374 11.167 11.3301 11.4946 11.6272 11.7941 11.9625 12.0982 12.2691 12.4414 12.5804 12.7555 12.9321 13.0745 13.2539 13.4349 13.581 13.765 13.9507 14 6.03561 6.161 6.28718 6.41415 6.54192 6.67051 6.79993 6.93018 7.06128 7.19324 7.32607 7.45978 7.59438 7.72989 7.86631 7.97612 8.11423 8.25329 8.36524 8.50605 8.64785 8.76202 8.90564 9.05029 9.16676 9.31331 9.46093 9.57981 9.7294 9.88011 10.0015 10.1543 10.3082 10.4322 10.5883 10.7456 10.8723 11.0319 11.1927 11.3223 11.4854 11.6499 11.7825 11.9494 12.1178 12.2534 12.4243 12.5967 12.7357 12.9108 13.0874 13.2298 13.4092 13.5902 13.7362 13.9203 14 6.19202 6.3174 6.44358 6.57055 6.69832 6.82691 6.95633 7.08658 7.21768 7.34964 7.48247 7.61618 7.75078 7.88629 8.02272 8.13253 8.27063 8.4097 8.52164 8.66245 8.80425 8.91842 9.06204 9.20669 9.32317 9.46971 9.61733 9.73621 9.8858 10.0365 10.1579 10.3107 10.4646 10.5886 10.7447 10.902 11.0287 11.1883 11.3491 11.4787 11.6418 11.8063 11.9389 12.1058 12.2742 12.4098 12.5808 12.7531 12.8921 13.0672 13.2438 13.3862 13.5656 13.7466 13.8926 14 6.34955 6.47494 6.60111 6.72808 6.85586 6.98445 7.11386 7.24412 7.37522 7.50717 7.64 7.77371 7.90831 8.04382 8.18025 8.29006 8.42817 8.56723 8.67917 8.81999 8.96179 9.07595 9.21957 9.36423 9.4807 9.62725 9.77487 9.89375 10.0433 10.194 10.3154 10.4682 10.6221 10.7461 10.9022 11.0595 11.1862 11.3458 11.5066 11.6362 11.7993 11.9638 12.0964 12.2633 12.4317 12.5674 12.7383 12.9107 13.0496 13.2247 13.4013 13.5437 13.7231 13.9042 14 6.50823 6.63362 6.75979 6.88676 7.01453 7.14312 7.27254 7.40279 7.53389 7.66585 7.79868 7.93239 8.06699 8.2025 8.33893 8.44874 8.58685 8.72591 8.83785 8.97866 9.12047 9.23463 9.37825 9.5229 9.63938 9.78592 9.93354 10.0524 10.202 10.3527 10.4741 10.6269 10.7808 10.9048 11.0609 11.2182 11.3449 11.5045 11.6653 11.7949 11.958 12.1225 12.2551 12.422 12.5904 12.7261 12.897 13.0693 13.2083 13.3834 13.56 13.7024 13.8818 14 6.66807 6.79346 6.91963 7.0466 7.17438 7.30297 7.43238 7.56263 7.69373 7.82569 7.95852 8.09223 8.22683 8.36234 8.49877 8.60858 8.74669 8.88575 8.99769 9.1385 9.28031 9.39447 9.53809 9.68274 9.79922 9.94577 10.0934 10.2123 10.3619 10.5126 10.634 10.7867 10.9407 11.0647 11.2207 11.378 11.5048 11.6643 11.8251 11.9547 12.1179 12.2824 12.4149 12.5819 12.7502 12.8859 13.0568 13.2292 13.3681 13.5432 13.7198 13.8622 14 6.82909 6.95448 7.08065 7.20762 7.3354 7.46399 7.5934 7.72365 7.85475 7.98671 8.11954 8.25325 8.38785 8.52336 8.65979 8.7696 8.90771 9.04677 9.15871 9.29952 9.44133 9.55549 9.69911 9.84377 9.96024 10.1068 10.2544 10.3733 10.5229 10.6736 10.795 10.9477 11.1017 11.2257 11.3818 11.5391 11.6658 11.8253 11.9861 12.1157 12.2789 12.4434 12.5759 12.7429 12.9112 13.0469 13.2178 13.3902 13.5292 13.7042 13.8808 14 6.99131 7.1167 7.24287 7.36984 7.49761 7.6262 7.75562 7.88587 8.01697 8.14893 8.28176 8.41547 8.55007 8.68558 8.82201 8.93182 9.06992 9.20899 9.32093 9.46174 9.60354 9.71771 9.86133 10.006 10.1225 10.269 10.4166 10.5355 10.6851 10.8358 10.9572 11.11 11.2639 11.3879 11.544 11.7013 11.828 11.9875 12.1484 12.2779 12.4411 12.6056 12.7382 12.9051 13.0734 13.2091 13.38 13.5524 13.6914 13.8664 14 7.15474 7.28013 7.4063 7.53327 7.66105 7.78964 7.91905 8.04931 8.18041 8.31236 8.44519 8.5789 8.71351 8.84901 8.98544 9.09525 9.23336 9.37242 9.48436 9.62518 9.76698 9.88114 10.0248 10.1694 10.2859 10.4324 10.5801 10.6989 10.8485 10.9992 11.1206 11.2734 11.4273 11.5513 11.7074 11.8647 11.9914 12.151 12.3118 12.4414 12.6045 12.769 12.9016 13.0685 13.2369 13.3726 13.5435 13.7158 13.8548 14 7.3194 7.44479 7.57097 7.69794 7.82571 7.9543 8.08372 8.21397 8.34507 8.47703 8.60986 8.74357 8.87817 9.01368 9.15011 9.25992 9.39802 9.53709 9.64903 9.78984 9.93164 10.0458 10.1894 10.3341 10.4506 10.5971 10.7447 10.8636 11.0132 11.1639 11.2853 11.4381 11.592 11.716 11.8721 12.0294 12.1561 12.3156 12.4765 12.606 12.7692 12.9337 13.0663 13.2332 13.4015 13.5372 13.7081 13.8805 14 7.48532 7.61071 7.73689 7.86386 7.99163 8.12022 8.24964 8.37989 8.51099 8.64295 8.77578 8.90949 9.04409 9.1796 9.31602 9.42583 9.56394 9.703 9.81495 9.95576 10.0976 10.2117 10.3553 10.5 10.6165 10.763 10.9106 11.0295 11.1791 11.3298 11.4512 11.604 11.7579 11.8819 12.038 12.1953 12.322 12.4816 12.6424 12.772 12.9351 13.0996 13.2322 13.3991 13.5675 13.7032 13.8741 14 7.65251 7.7779 7.90408 8.03105 8.15882 8.28741 8.41683 8.54708 8.67818 8.81014 8.94297 9.07668 9.21128 9.34679 9.48321 9.59302 9.73113 9.87019 9.98214 10.123 10.2648 10.3789 10.5225 10.6672 10.7837 10.9302 11.0778 11.1967 11.3463 11.497 11.6184 11.7712 11.9251 12.0491 12.2052 12.3625 12.4892 12.6488 12.8096 12.9392 13.1023 13.2668 13.3994 13.5663 13.7347 13.8703 14 7.82099 7.94638 8.07256 8.19953 8.3273 8.45589 8.58531 8.71556 8.84666 8.97862 9.11145 9.24516 9.37976 9.51527 9.65169 9.7615 9.89961 10.0387 10.1506 10.2914 10.4332 10.5474 10.691 10.8357 10.9521 11.0987 11.2463 11.3652 11.5148 11.6655 11.7869 11.9396 12.0936 12.2176 12.3737 12.531 12.6577 12.8172 12.9781 13.1076 13.2708 13.4353 13.5679 13.7348 13.9031 14 7.99079 8.11618 8.24235 8.36932 8.49709 8.62568 8.7551 8.88535 9.01645 9.14841 9.28124 9.41495 9.54955 9.68506 9.82149 9.9313 10.0694 10.2085 10.3204 10.4612 10.603 10.7172 10.8608 11.