<?xml version="1.0"?><VTKFile type="PolyData" version="0.1" byte_order="LittleEndian">
<PolyData>
<Piece NumberOfLines="194" NumberOfPoints="195">
<CellData Scalars=" CellData">
<DataArray type="Float32" Name="radius" NumberOfComponents="1" format="ascii" >
0.05 0.02 0.02 0.02 0.02 0.02 0.02 0.02 0.02 0.05 0.02 0.02 0.02 0.02 0.02 0.02 0.02 0.02 0.05 0.02 0.02 0.02 0.02 0.02 0.02 0.05 0.02 0.02 0.02 0.02 0.02 0.02 0.05 0.02 0.02 0.02 0.02 0.02 0.02 0.05 0.02 0.02 0.02 0.02 0.05 0.02 0.02 0.02 0.02 0.05 0.02 0.02 0.02 0.02 0.05 0.02 0.02 0.05 0.02 0.02 0.05 0.05 0.05 0.05 0.05 0.05 0.05 0.05 0.05 0.05 0.02 0.02 0.02 0.02 0.02 0.02 0.05 0.02 0.02 0.02 0.02 0.02 0.02 0.05 0.02 0.02 0.02 0.02 0.02 0.02 0.05 0.02 0.02 0.02 0.02 0.05 0.02 0.02 0.02 0.02 0.05 0.02 0.02 0.02 0.02 0.05 0.02 0.02 0.05 0.02 0.02 0.05 0.05 0.05 0.05 0.05 0.05 0.05 0.05 0.05 0.05 0.05 0.02 0.02 0.05 0.02 0.02 0.05 0.05 0.05 0.05 0.05 0.05 0.05 0.05 0.05 0.05 0.05 0.05 0.05 0.05 0.05 0.05 0.15 0.03 0.03 0.03 0.03 0.03 0.03 0.03 0.03 0.03 0.03 0.03 0.03 0.15 0.15 0.15 0.15 0.15 0.15 0.03 0.03 0.03 0.03 0.03 0.15 0.15 0.15 0.15 0.15 0.05 0.05 0.02 0.02 0.02 0.02 0.05 0.03 0.02 0.02 0.02 0.02 0.02 0.02 0.02 0.02 0.02 0.02 0.03 0.02 0.02 0.05 
</DataArray>
<DataArray type="Float32" Name="subType" NumberOfComponents="1" format="ascii" >
0 1 1 1 1 1 1 1 1 0 1 1 1 1 1 1 1 1 0 1 1 1 1 1 1 0 1 1 1 1 1 1 0 1 1 1 1 1 1 0 1 1 1 1 0 1 1 1 1 0 1 1 1 1 0 1 1 0 1 1 0 0 0 0 0 0 0 0 0 3 1 1 1 1 1 1 3 1 1 1 1 1 1 3 1 1 1 1 1 1 3 1 1 1 1 3 1 1 1 1 3 1 1 1 1 3 1 1 3 1 1 3 3 3 3 3 3 3 3 3 3 3 1 1 3 1 1 3 3 3 3 3 3 3 3 3 3 3 3 3 3 3 3 0 0 0 0 0 0 0 0 0 0 0 0 0 0 0 0 0 0 1 0 0 0 0 0 1 1 1 1 1 3 3 1 1 1 1 0 0 1 1 1 1 1 1 1 1 1 1 0 1 1 3 
</DataArray>
<DataArray type="Float32" Name="creationTime" NumberOfComponents="1" format="ascii" >
0.420178 5.47378 6.65161 7.98693 9.52843 5.47378 6.65161 7.98693 9.52843 0.847539 5.90114 7.07897 8.41429 9.9558 5.90114 7.07897 8.41429 9.9558 1.28233 6.33594 7.51377 8.84908 6.33594 7.51377 8.84908 1.72482 6.77843 7.95626 9.29157 6.77843 7.95626 9.29157 2.17528 7.22889 8.40672 9.74203 7.22889 8.40672 9.74203 2.63401 7.68762 8.86545 7.68762 8.86545 3.10132 8.15492 9.33275 8.15492 9.33275 3.57752 8.63113 9.80896 8.63113 9.80896 4.06297 9.11658 9.11658 4.55804 9.61164 9.61164 5.06311 5.57859 6.10492 6.64258 7.19205 7.75387 8.32861 8.91687 9.51931 1.42018 6.47378 7.65161 8.98693 6.47378 7.65161 8.98693 1.84754 6.90114 8.07897 9.41429 6.90114 8.07897 9.41429 2.28233 7.33594 8.51377 9.84908 7.33594 8.51377 9.84908 2.72482 7.77843 8.95626 7.77843 8.95626 3.17528 8.22889 9.40672 8.22889 9.40672 3.63401 8.68762 9.86545 8.68762 9.86545 4.10132 9.15492 9.15492 4.57752 9.63113 9.63113 5.06297 5.55804 6.06311 6.57859 7.10492 7.64258 8.19205 8.75387 9.32861 9.91687 4.42018 9.47378 9.47378 4.84754 9.90114 9.90114 5.28233 5.72482 6.17528 6.63401 7.10132 7.57752 8.06297 8.55804 9.06311 9.57859 7.42018 7.84754 8.28233 8.72482 9.17528 9.63401 1.01881 1.53081 2.06842 2.63434 3.23172 3.86426 4.53635 5.25328 6.02147 6.8488 7.74515 8.7231 9.79899 3.40403 4 2.2939 1.22722 1.33203 1.01881 1.53081 2.06842 2.63434 3.23172 3.86426 3.40403 4 2.2939 1.22722 1.33203 10.1013 10.1049 10.1166 10.1166 10.1167 10.1167 10.1366 4.50069 10.2008 10.2008 10.2916 10.2916 10.2944 10.2944 10.3328 10.3328 10.3359 10.3359 10.5007 10.3906 10.3906 10.4202 
</DataArray>
<DataArray type="Float32" Name="organType" NumberOfComponents="1" format="ascii" >
2 2 2 2 2 2 2 2 2 2 2 2 2 2 2 2 2 2 2 2 2 2 2 2 2 2 2 2 2 2 2 2 2 2 2 2 2 2 2 2 2 2 2 2 2 2 2 2 2 2 2 2 2 2 2 2 2 2 2 2 2 2 2 2 2 2 2 2 2 2 2 2 2 2 2 2 2 2 2 2 2 2 2 2 2 2 2 2 2 2 2 2 2 2 2 2 2 2 2 2 2 2 2 2 2 2 2 2 2 2 2 2 2 2 2 2 2 2 2 2 2 2 2 2 2 2 2 2 2 2 2 2 2 2 2 2 2 2 2 2 2 2 2 3 4 4 4 4 4 4 4 4 4 4 4 4 3 3 3 3 3 3 4 4 4 4 4 3 3 3 3 3 2 2 2 2 2 2 2 4 2 2 2 2 2 2 2 2 2 2 4 2 2 2 
</DataArray>

</CellData>
<Points>
<DataArray type="Float32" Name="Coordinates" NumberOfComponents="3" format="ascii" >
0 0 -0.3 -0.129122 -0.272247 -1.25352 0.226732 -0.908456 -1.93807 -0.218616 -1.32063 -2.73292 -0.0925622 -1.66057 -3.66488 -0.0561851 -1.89721 -4.63579 -0.444436 -0.484103 -2.17856 -0.21976 -0.664858 -3.13608 -0.409518 -0.830059 -4.10392 -0.585523 -1.00149 -5.07326 -0.499695 -0.53879 -2.14326 -1.31011 -0.940005 -2.57017 -2.17722 -0.675285 -2.99212 -2.35961 -0.14085 -3.81742 -2.4932 0.399137 -4.64842 -0.36752 -0.551357 -3.13441 -0.342524 -1.28543 -3.81302 -0.34398 -2.02384 -4.48737 -0.344923 -1.98853 -5.48675 -0.797482 -0.426982 -3.09132 -0.720434 0.258975 -3.81487 -0.355442 0.327881 -4.74333 -0.14022 0.849947 -5.56864 -0.580307 -0.652124 -4.04114 -0.308628 -0.401446 -4.9703 0.073432 -0.284669 -5.88703 -0.679301 -0.324941 -4.07906 -1.03787 0.284474 -4.7862 -0.807416 0.357182 -5.75656 -0.109797 -0.075181 -6.32787 -0.580541 -0.740282 -4.98335 -0.570177 -1.15399 -5.8937 -0.758409 -1.37062 -6.85163 -1.00803 -0.233212 -5.01902 -1.17692 -0.433088 -5.98417 -1.21736 -0.471225 -6.98263 -1.18207 -0.566267 -7.97747 -1.05481 0.392868 -5.79737 -1.14817 0.947783 -6.62402 -1.26013 0.814785 -7.6088 -0.982875 -0.16687 -6.0165 -0.908779 -0.0303815 -7.00436 -0.536331 0.099705 -7.92325 -1.62027 -0.586077 -6.66302 -1.6896 -0.97617 -7.58118 -0.929527 -0.211995 -7.01405 -1.02672 -0.0385391 -7.99409 -0.947955 -0.179163 -8.98101 -1.14344 0.61699 -7.5308 -1.33089 1.08858 -8.39246 -1.01656 -0.256676 -8.00926 -1.5376 0.130679 -8.76983 -1.83212 0.505343 -9.64897 -1.45719 0.138821 -8.81513 -1.84879 -0.0725438 -9.71066 -0.763254 -0.0135765 -8.9456 -0.562132 0.441116 -9.81324 -0.471941 0.443114 -9.78618 -0.557433 0.216521 -9.89675 -0.407794 -0.148791 -10.8155 -0.286289 0.338053 -10.8516 -0.37039 0.557089 -10.8182 -0.631563 0.86324 -11.7336 -0.819969 0.968459 -12.7101 -1.36491 1.33239 -13.4655 -2.12562 1.74773 -13.9643 -2.68824 0.949112 -14.178 -3.02758 0.0475135 -14.4462 -3.0287 -0.952424 -14.4351 -3.32163 -1.90852 -14.4264 0.524508 0.527337 -0.968436 1.28065 0.702868 -1.59886 2.17268 1.13486 -1.7318 2.77681 1.91059 -1.91422 0.508203 0.345491 -1.95163 0.609501 0.260744 -2.94287 0.135264 0.73382 -3.68536 1.24081 1.03535 -1.4468 1.52484 1.78708 -2.04197 1.60519 2.01178 -3.01308 1.84132 2.23367 -3.95912 1.30141 1.96411 -1.8125 1.34067 2.28672 -2.75821 1.49923 1.95422 -3.68789 1.60796 1.57141 -2.20696 1.24183 1.42824 -3.12645 1.17269 1.29835 -4.11556 0.970375 1.11142 -5.07687 1.27174 2.37619 -2.69612 0.743395 2.91635 -3.35116 0.336646 3.2066 -4.21737 2.00888 2.08732 -2.96399 2.37622 2.21122 -3.88579 2.27831 2.71657 -4.74313 2.11162 2.57311 -3.832 1.85425 2.3785 -4.77852 2.38727 2.60306 -3.73265 2.68007 2.0959 -4.54324 2.80871 1.63287 -5.42019 2.7213 2.00081 -4.45771 2.24584 1.61063 -5.24619 2.71748 3.06332 -4.55674 2.81718 2.87301 -5.53338 2.93498 2.5614 -6.47626 2.62846 2.96958 -5.54834 1.87422 2.87401 -6.19794 3.12671 3.18275 -5.46132 3.32737 3.16865 -6.44088 3.27653 3.33551 -6.43816 3.28154 3.29797 -6.44252 3.46446 2.82703 -7.30551 3.41188 3.24746 -7.4327 3.37807 3.41299 -7.43118 3.33989 3.50178 -8.4265 3.41973 3.36898 -9.41442 3.18381 3.24286 -10.378 2.72508 3.49127 -11.2311 2.28597 3.61271 -12.1213 1.68524 3.33842 -12.8722 0.963505 3.49046 -13.5475 -0.0348789 3.54493 -13.5637 -0.957178 3.16584 -13.4885 -0.378498 0.0541013 -1.22402 -0.7185 0.155091 -2.15901 -1.31326 0.0530972 -1.57929 -0.566137 0.10713 -2.20483 -0.476827 0.273867 -3.18677 -0.259091 0.756838 -2.90024 -0.695728 0.160067 -3.19498 -0.769762 0.299415 -4.18245 -0.531227 0.738319 -5.04874 -0.176091 1.31855 -5.78169 -0.251074 1.84014 -6.63158 -0.359773 1.93571 -7.62105 -0.563688 2.24362 -8.55036 -0.738107 2.52764 -9.49318 -0.515566 2.60264 -10.4652 -0.277397 2.68206 -11.4332 0.446229 0.333339 -1.13052 1.04133 0.464953 -1.92332 1.74758 0.472055 -2.63125 2.49743 0.479144 -3.29282 2.99662 0.445562 -4.15866 3.15343 0.692526 -5.11492 0.0977413 -0.0282143 0.694812 0.772432 -0.0468009 2.57748 1.50322 -0.100743 4.43841 2.24975 -0.153712 6.2931 3.08415 -0.211538 8.10981 3.99508 -0.326574 9.8866 4.98707 -0.378019 11.6225 6.05455 -0.369026 13.3138 7.19361 -0.327641 14.9572 8.41257 -0.279289 16.542 9.69919 -0.226282 18.0723 11.0332 -0.169242 19.5614 12.4541 -0.133174 20.9684 0.208018 -0.044202 1.68858 0.267278 -0.0585796 2.20527 0.37572 -0.104367 3.19832 0.387592 -0.108518 3.29753 0.399577 -0.113421 3.39668 0.0834869 -0.0673757 0.694229 -0.258998 -0.189768 2.66088 -0.709456 -0.276564 4.60756 -1.26388 -0.438175 6.52237 -1.86124 -0.666572 8.41736 -2.55389 -0.95356 10.2715 0.170565 -0.14637 1.68729 0.212988 -0.196882 2.20337 0.304846 -0.289697 3.19481 0.314143 -0.299729 3.29387 0.323725 -0.310289 3.39284 3.07386 1.16097 -5.99482 -0.327589 2.7842 -12.4267 3.2585 3.21203 -8.40345 3.39318 3.55131 -8.42145 -0.480818 0.894026 -11.7532 -0.173729 1.45718 -11.207 -3.15667 -2.54431 -13.6724 -3.26972 -1.23639 12.0054 -0.522246 0.221081 -8.91576 -1.83353 -0.887905 -8.56683 2.24078 3.02708 -5.69296 1.87605 2.34878 -5.77784 -0.223997 0.89115 -10.6398 -0.0874439 0.418067 -10.709 3.19088 3.15535 -7.43143 3.46731 3.43034 -7.4152 -1.19452 0.319616 -4.04689 -0.706954 0.131983 -4.19452 13.34 -0.0945078 21.7778 0.0422085 1.32165 -6.43132 0.293727 -0.103353 -6.84547 -0.397496 -0.0602131 -1.21563 
</DataArray>
</Points>
<Lines>
<DataArray type="Int32" Name="connectivity" NumberOfComponents="1" format="ascii" >
0 1 1 2 2 3 3 4 4 5 1 6 6 7 7 8 8 9 1 10 10 11 11 12 12 13 13 14 10 15 15 16 16 17 17 18 10 19 19 20 20 21 21 22 19 23 23 24 24 25 19 26 26 27 27 28 28 29 26 30 30 31 31 32 26 33 33 34 34 35 35 36 33 37 37 38 38 39 33 40 40 41 41 42 40 43 43 44 40 45 45 46 46 47 45 48 48 49 45 50 50 51 51 52 50 53 53 54 50 55 55 56 55 57 55 58 58 59 58 60 58 61 61 62 62 63 63 64 64 65 65 66 66 67 67 68 68 69 0 70 70 71 71 72 72 73 70 74 74 75 75 76 70 77 77 78 78 79 79 80 77 81 81 82 82 83 77 84 84 85 85 86 86 87 84 88 88 89 89 90 84 91 91 92 92 93 91 94 94 95 91 96 96 97 97 98 96 99 99 100 96 101 101 102 102 103 101 104 104 105 101 106 106 107 106 108 106 109 109 110 109 111 109 112 112 113 113 114 114 115 115 116 116 117 117 118 118 119 119 120 120 121 0 122 122 123 122 124 122 125 125 126 125 127 125 128 128 129 129 130 130 131 131 132 132 133 133 134 134 135 135 136 136 137 0 138 138 139 139 140 140 141 141 142 142 143 0 144 144 145 145 146 146 147 147 148 148 149 149 150 150 151 151 152 152 153 153 154 154 155 155 156 144 157 157 158 158 159 159 160 160 161 0 162 162 163 163 164 164 165 165 166 166 167 162 168 168 169 169 170 170 171 171 172 143 173 137 174 112 175 112 176 61 177 61 178 69 179 167 180 42 181 44 182 93 183 95 184 56 185 57 186 107 187 108 188 128 189 128 190 156 191 22 192 25 193 0 194 
</DataArray>
<DataArray type="Int32" Name="offsets" NumberOfComponents="1" format="ascii" >
2 4 6 8 10 12 14 16 18 20 22 24 26 28 30 32 34 36 38 40 42 44 46 48 50 52 54 56 58 60 62 64 66 68 70 72 74 76 78 80 82 84 86 88 90 92 94 96 98 100 102 104 106 108 110 112 114 116 118 120 122 124 126 128 130 132 134 136 138 140 142 144 146 148 150 152 154 156 158 160 162 164 166 168 170 172 174 176 178 180 182 184 186 188 190 192 194 196 198 200 202 204 206 208 210 212 214 216 218 220 222 224 226 228 230 232 234 236 238 240 242 244 246 248 250 252 254 256 258 260 262 264 266 268 270 272 274 276 278 280 282 284 286 288 290 292 294 296 298 300 302 304 306 308 310 312 314 316 318 320 322 324 326 328 330 332 334 336 338 340 342 344 346 348 350 352 354 356 358 360 362 364 366 368 370 372 374 376 378 380 382 384 386 388 
</DataArray>

</Lines>
</Piece>
</PolyData>
</VTKFile>
