<?xml version="1.0"?>
<VTKFile type="UnstructuredGrid" version="0.1" byte_order="LittleEndian">
  <UnstructuredGrid>
    <Piece NumberOfCells="1900" NumberOfPoints="2420">
      <CellData Scalars="p (Pa)">
        <DataArray type="Float32" Name="p (Pa)" NumberOfComponents="1" format="ascii">
          95865.9 95856.4 95839.2 95817.6 95796.2 95779.7 95770.6 95767.6 95768 95769 95866.4 95856.6
          95838.7 95816 95793.4 95776.2 95767.1 95764.5 95765.3 95766.5 95868.4 95858.2 95839.4 95815.2
          95790.9 95772.4 95763.3 95761.2 95762.4 95763.9 95872.9 95862.5 95843.3 95818.6 95793.4 95774
          95764.7 95762.5 95763.6 95765 95880.5 95870.5 95852 95828.3 95804.4 95785.9 95776.1 95772.7
          95772.6 95773.6 95891.1 95881.8 95864.9 95843.4 95822.1 95805.7 95796.1 95791.8 95790.6 95790.8
          95903.4 95895.2 95880.2 95861.5 95843.3 95829.3 95820.5 95815.9 95814.1 95813.7 95915.5 95908.4
          95895.5 95879.6 95864.2 95852.1 95844.3 95839.9 95837.8 95837.1 95925.2 95918.9 95907.7 95894
          95880.6 95870 95862.8 95858.6 95856.5 95855.7 95930.6 95924.8 95914.5 95902 95889.7 95879.8
          95872.9 95868.8 95866.7 95865.8 95769 95757.5 95736.5 95710 95684.1 95665.6 95657.5 95657.2
          95660.1 95662.5 95769 95756.9 95734.6 95706 95677.6 95657.5 95650 95650.9 95654.8 95657.8
          95770.2 95757.4 95733.3 95701.6 95669 95645.8 95639.4 95642.2 95647.4 95651.1 95774.3 95761.1
          95736.1 95702.8 95667.6 95641.1 95635.4 95638.7 95644 95648 95782 95769.2 95745.1 95713.5
          95681.1 95657.3 95649 95648.6 95651.4 95654.7 95793.4 95781.5 95759.5 95731.2 95703.4 95684.2
          95675.4 95672.5 95672.6 95674.5 95807 95796.5 95777.3 95753.3 95730.4 95715.2 95707.3 95703.8
          95702.8 95703.4 95820.7 95811.9 95795.8 95776 95757.6 95745 95737.9 95734.5 95733.1 95733.1
          95832 95824.4 95810.8 95794.4 95779.1 95768.1 95761.6 95758.2 95756.8 95756.4 95838.3 95831.4
          95819.2 95804.6 95790.9 95780.6 95774.3 95771 95769.5 95769 95648.1 95631.9 95601.7 95562.8
          95525.4 95502.2 95497.9 95504.9 95514.3 95520.4 95646.9 95629.3 95595.9 95551.4 95506.6 95479
          95478.2 95489.6 95502 95509.6 95646.3 95626.9 95589 95535.7 95477 95437.7 95445.2 95464.8
          95481.7 95492 95649.2 95628.9 95588.6 95530.3 95460.5 95399.8 95419.9 95444.8 95463.5 95476
          95657.2 95637.3 95598.5 95544.5 95485.3 95443 95443.8 95452.2 95462.8 95475.1 95670 95651.5
          95616.1 95568.3 95520.3 95495.2 95490.9 95491.1 95493.3 95501.4 95686.6 95670.4 95639.9 95600.1
          95562.9 95547.3 95544 95543.3 95543.7 95547.5 95704.2 95690.9 95666.5 95636.2 95609.4 95596.8
          95593.1 95592.4 95592.8 95594.4 95719.1 95708.2 95688.8 95665.5 95645.3 95634.2 95630 95629
          95629.2 95630 95727.5 95718.1 95701.3 95681.6 95664.4 95653.9 95649.4 95648.1 95648.3 95648.8
          95498.7 95473.5 95425 95360.3 95297.5 95266.2 95273.8 95297.9 95320.9 95334.4 95494.8 95466.4
          95409.9 95329.1 95241.7 95198.4 95222.5 95261.8 95293.2 95311 95490.7 95457.9 95389.4 95280.4
          95134.8 95038.5 95120.2 95194.5 95241.4 95267.8 95491.3 95456.2 95381.8 95257.3 95058.1 94734.1
          95001.1 95119.1 95176.9 95216.4 95499.2 95464.9 95394.1 95284.1 95142.7 95025.8 95080.9 95103.6
          95131.1 95185.6 95514.2 95481.8 95415.4 95315.3 95200 95175.8 95195 95195.2 95186.8 95226.3
          95535.7 95507.2 95449.9 95366.9 95279.5 95283.8 95301.8 95306.5 95304.7 95320.1 95560.7 95538.2
          95495 95438.5 95388.7 95384.5 95393.9 95399.8 95402.4 95408.6 95582.5 95565.2 95533.6 95495.3
          95464.2 95455.9 95459.1 95463.7 95467.2 95470.6 95595.1 95580.6 95554.9 95525 95501.2 95491.8
          95492.2 95495.7 95499.1 95501.6 95315.8 95275.3 95193.7 95076.8 94956.7 94917 94958.4 95019.7
          95068.5 95095.4 95307.3 95259.5 95157.2 94990.8 94776.2 94714.5 94830.6 94939.6 95010.3 95048.1
          95296.6 95238.3 95102.5 94832 94263.1 93958.5 94507.9 94764.8 94883.2 94950 95293.1 95230.2
          95081.2 94767.8 93925.6 89580.4 93846.8 94480.6 94657.4 94800.1 95300.5 95239.1 95101.1 94851
          94430.6 93892.9 94321.6 94201.4 94255.2 94638.8 95317.7 95257.1 95119.4 94857.3 94369 94540.4
          94680.2 94622.5 94410 94714.7 95346.6 95292 95169.7 94943.6 94543.5 94803 94924.4 94934
          94893.3 94966 95384.5 95343.4 95259.2 95133.4 95002.1 95058.7 95115.3 95135.8 95136.8 95157.8
          95418.8 95389.5 95333.8 95262.9 95206.1 95214.2 95238.6 95255.4 95264.2 95273.3 95438.7 95415.5
          95373.5 95324.2 95288.2 95285 95297.6 95310.9 95320.2 95326.5 95096.6 95032.3 94894.6 94674.4
          94412.1 94389.6 94518.6 94652.9 94746.5 94795.9 95080.3 95000 94809.6 94425.9 93658.2 93738.7
          94211.9 94489.1 94633.5 94709.2 95058.6 94953.5 94660.3 93744.9 88594 88157.1 93086.7 94050.7
          94332.2 94503.7 95049.2 94935.6 94617.2 93594.5 87074 -1.20004e+06 86832.8 92862.6 93435.7 94088
          95055.4 94946 94673 94069.6 92645 87760.7 92409 88282.7 88404 93269.3 95072.7 94956.8
          94644.5 93719.4 88819.2 92931.7 93732.2 93165.9 89195.7 93457.5 95110.7 95000.2 94702.8 93832.4
          89260.2 93642.2 94311.1 94302.6 93918.4 94372.5 95171.4 95094.3 94918.3 94591.3 94029.6 94509.8
          94728.2 94778.3 94750.6 94826.4 95227.6 95177.2 95076.1 94934 94806.5 94883.9 94963.7 95004.5
          95019.8 95042.3 95259.6 95222.4 95152.9 95068.6 95010.2 95027.5 95067.2 95098.4 95117.6 95130.6
          94842.1 94746.3 94528 94124.4 93446.6 93627.3 93924.9 94182.9 94348.4 94433 94814.7 94688.1
          94344.9 93349.8 87967.8 92172.9 93189 93878.9 94153.5 94296 94777.6 94595.4 93879.5 88199.6
          -1.18106e+06 81799.8 87044.2 92710.2 93422.1 93920.2 94762.3 94568.1 93823.1 88061.9 -1.06369e+06 -1.2168e+06
          -1.21096e+06 85027.4 87605.1 92804.1 94767 94584 94061.6 92552.1 84885.1 77425.8 83880.2 -1.11954e+06
          -1.13369e+06 86759.8 94779.5 94559.3 93760 88122.7 -994013 85975 91843.5 86105.3 -894949 87716.2
          94824.4 94583.7 93632.5 87203.9 -1.13148e+06 87893.3 93275.9 93151.6 89117.9 93370.4 94925.6 94780.6
          94391.2 93345.8 88811.6 93476.1 94237.4 94344 94162.3 94451.9 95017.4 94934.1 94753 94455.6
          94096.6 94458.8 94657.3 94739 94761.2 94810.2 95067.9 95011 94900.8 94760.2 94667.1 94735.6
          94822.2 94881.1 94914.5 94937.5 94557.6 94430.7 94141.5 93598.2 92595.4 92482.1 93175.2 93578.1
          93865.9 94005.1 94518.2 94349.6 93898.6 92609 85859.2 85924.2 92023.2 93202.9 93651.3 93849.1
          94467.7 94226.9 93315.9 86680.3 -1.21392e+06 -1.15562e+06 84693.2 91756.7 93000.5 93451.3 94455.4 94215.1
          93490.3 91312.9 79972.2 -1.21723e+06 69451.8 83823.6 91131.6 92620.8 94462 94206.9 93473.7 91339.7
          80809.8 67238 78455.7 -1.21712e+06 82072.8 91231.6 94470 94115.1 92750.6 84101.1 -1.2181e+06 80305.2
          90090.4 85142.6 86580.4 92195.6 94511 93921.1 88415.2 -1.12077e+06 -1.21378e+06 85920.2 92559 92846.4
          92957.2 93636.8 94677.9 94423.3 93483.6 88049.9 86922.5 92834.7 93879.8 94116.3 94194.8 94336.4
          94816.6 94694.4 94399.2 93784 93565.6 94126.5 94412.8 94544.8 94609.9 94658.6 94888.6 94812.1
          94658.6 94456 94371.2 94488.4 94616.7 94704.5 94757.2 94786.9 94244.1 94081.3 93732.6 93177.5
          92353.7 91577 92184.1 92408.7 93166 93458.7 94183.4 93959.8 93430.5 92521 90638.9 84023.6
          90814.8 92285.4 93013.4 93320.8 94112.7 93779.6 92760.6 90875.8 81215.6 -1.233e+06 81105.8 90547.1
          92394.9 92965.6 94133 93829.2 92995.5 90908.1 79998.8 -1.21868e+06 -1.22104e+06 81265.3 90966.4 92437.8
          94180.6 93857.1 92747.2 85501 -1.22047e+06 -1.22261e+06 -1.22308e+06 -1.21484e+06 85452.5 92062.8 94229.7 93817.2
          92234.9 82626.5 -1.23e+06 70387.1 83997.5 86086.1 92007.7 93086 94308.7 93655 87723.8 -1.18885e+06
          -1.2139e+06 85482.3 92152.5 92975.7 93577.9 93854.8 94514.5 94240.2 93233.8 87577.1 87087.7 92695.9
          93737.3 94056.7 94226.6 94324 94676.5 94546.9 94236.8 93606 93474.6 94000.6 94290.3 94444.9
          94533.1 94580.3 94758.6 94678 94517.9 94313 94244.1 94362.7 94497.5 94596.7 94659.8 94692.4
          93908.2 93672.9 93174.2 92553.1 91799.8 91058.5 90278.4 85130.5 91583.7 92635.4 93790.1 93381.6
          92251.7 91179.8 89943.8 88980.6 88989.7 90177 91940.5 92584.3 93640.7 92711.3 86578.2 83328.7
          79901.6 76413.3 76504.7 83156.2 91016.9 92284 93794.8 93320.1 91923.9 89678.7 79388.9 -1.21731e+06
          -1.22365e+06 81574.3 90923.3 92293.4 93971.8 93636.4 92700.5 90314.2 77848.1 -1.21989e+06 70881 84571.7
          91630.9 92738.9 94123.5 93801.6 92684.7 85482.2 -1.21614e+06 -1.19838e+06 85536.6 91849.8 93069.2 93452.9
          94282.5 93979.7 92916.1 86959.1 84421.3 86719.8 92524.1 93476 93837.2 93991.9 94474.4 94303
          93877.1 92970.8 92658.8 93179.4 93835.5 94121.8 94272 94344.5 94621.4 94525.7 94329.1 94060.6
          93966.8 94109.6 94297.1 94428.3 94510.2 94551.4 94697 94631.8 94510.7 94373.1 94317.5 94374.6
          94472.4 94557.6 94616.2 94646.3 93628.7 93281 92386 91546.5 90633.6 89721.6 81544.1 -1.22977e+06
          83902.1 91144.9 93410.5 92458.2 86265.6 83988.3 82118.2 87365.2 78944.9 78763.6 89490.9 91358.5
          92984.5 87181.2 -1.18898e+06 -1.21905e+06 -1.28125e+06 72358.5 -1.22902e+06 -1.24274e+06 83557.1 90724.1 93499.2 92524.4
          86157.8 81882.5 66099 -1.21763e+06 -1.22054e+06 81229.4 90366.9 91901.7 93856.1 93503.1 92496.6 90665.6
          81138.2 -1.21824e+06 82484.4 90891 92339.5 92865.3 94108.6 93884.9 93323 91943.1 85418.2 84223
          91571.8 92903 93372.6 93584.8 94315.6 94154.1 93775.1 93003.4 92333.6 92469.9 93359.3 93761.1
          93966.2 94064.8 94494.2 94393.5 94187.9 93901.3 93742.4 93821.5 94047.5 94213.5 94317.3 94369.4
          94621.6 94558.5 94441.4 94305.8 94238.5 94275 94368.3 94455.2 94516.7 94548.7 94686.5 94640
          94558.1 94470.5 94426.1 94445.2 94502 94562 94607.6 94631.8 93587.1 93322.8 92766.4 92038.8
          90753.2 89224.3 78669.4 -1.22238e+06 79619.6 89541.5 93455.8 92993.2 91749.4 90314.9 82874.4 86373
          72094.7 -1.24972e+06 80200.8 88937.8 93310.7 92280.7 85623.7 80059 -1.26505e+06 72062.9 64024.2 75349.4
          73228.4 82566.7 93552.6 93018 91308.8 83375.3 -1.21966e+06 -1.2177e+06 78013 88398.3 83899.6 90463.4
          93859.3 93565.1 92825.7 91127.3 83878.8 81930.8 90107.3 91714.5 91769.2 92588.9 94133.4 93957.8
          93564 92874.3 91806.4 91686.5 92669.8 93162.7 93358.3 93561.8 94356.5 94247.4 94023.6 93701.5
          93439.2 93453.4 93696.2 93891.6 94010.4 94086.9 94527.6 94460.6 94334.6 94181.5 94083.3 94095.1
          94186.9 94280.5 94348.5 94387 94642.4 94599 94522 94436.9 94385.7 94390.6 94435.9 94489.4
          94532 94555.8 94699.6 94666.5 94609.4 94548.8 94512.2 94513.6 94543.6 94582.2 94614.6 94632.8
          93677.5 93489.4 93105.3 92528.4 91619 89732.8 80320.8 75066.7 87175.1 89149 93608.5 93342.6
          92756.8 91839.5 89930 81581.2 -1.22158e+06 -1.2389e+06 74822.8 80675.3 93543.7 93115.1 91884.9 89717.1
          81084 67309.3 -1.22664e+06 62160.6 -1.29967e+06 -1.24177e+06 93639.2 93163.2 91502.7 82936.2 68046 -1.21943e+06
          -1.24355e+06 78834.5 -1.21839e+06 82138.4 93878.6 93525.4 92341 86305.6 83268.6 83733.7 84816.5 90608.8
          86051.9 91704 94157 93969.1 93495.5 92482.2 91883.7 92154.2 92516.2 93031.1 92980.2 93440.3
          94388.1 94289.4 94081.8 93775.5 93594.8 93655.8 93785 93921.6 93998.3 94084.4 94556.6 94501.9
          94399.4 94275.5 94199.3 94205.2 94256.2 94317.8 94366.2 94398.9 94664.8 94631 94571.2 94504.8
          94461.7 94457.4 94481.6 94516.3 94546.7 94565 94717.6 94692 94648 94600.4 94568.4 94562.2
          94577.6 94602.4 94625.3 94638.9 93790.1 93639.6 93323.7 92814.1 92105 91008.6 88719 87081.1
          89418.9 90429.8 93745.1 93537.7 93054.2 92056.7 90855.7 88815 77697.5 74537.4 86621.5 88854.1
          93690.5 93326.3 92083.6 85274.9 81456.4 76134.4 -1.22267e+06 60875 72700.4 80934.6 93706.3 92979.1
          86432.6 -1.21399e+06 -1.22342e+06 -1.23573e+06 -1.21782e+06 -1.21973e+06 -1.21762e+06 84143.9 93902.2 93304.3 87971.4 -754151
          -1.21332e+06 82075.7 84312.3 85370.7 86174 91903.5 94184.8 93951.9 93099.6 88196.3 86845.9 91963.2
          92468.4 92794.7 93019.3 93501.6 94415.9 94314.5 94072.1 93567.6 93367.6 93686.8 93825.5 93940.5
          94029.2 94115.6 94579.4 94529.3 94431.5 94303 94232.6 94253.6 94295 94344.2 94386.8 94416.5
          94682.2 94653 94600.8 94541.1 94501.4 94494.9 94510.1 94535.5 94559.6 94574.8 94731.6 94710.1
          94672.8 94631.6 94601.8 94592.2 94600 94617 94634.3 94645 93889.3 93764.5 93501.1 93071.8
          92432.4 91477 89439 82036.6 89885.9 91250.6 93864.3 93705.4 93349.7 92702 91519.8 89670.2
          79107.1 -1.2212e+06 82807.5 90506.9 93841.1 93605.9 92982.9 91342 84077.2 77729.9 -1.29222e+06 -1.22346e+06
          82010 90191.5 93876.6 93538.8 92245.4 83926.2 -1.21938e+06 -1.21739e+06 -1.22931e+06 79563.3 84867 91319.8
          94032.8 93747.1 92724 87203.7 83283.7 84230.5 85037.7 91154.8 92073.4 92914 94254 94099.2
          93702.9 92821.8 92278.7 92426.6 92676.5 93271.8 93537.5 93732.1 94451.5 94372.6 94206.1 93959.2
          93805.7 93821.7 93899.7 94026.5 94120.5 94182.6 94598 94556 94476.8 94379.3 94313.1 94302.8
          94328.2 94373 94413.6 94439.2 94692.1 94666.8 94621.7 94570 94531.8 94518.8 94527.4 94548
          94569 94582.3 94737.7 94718.9 94686 94649 94620.2 94607.8 94611.1 94623.9 94638.1 94647.1
          93956.8 93847.1 93614.7 93232.3 92653.5 91790.5 90463.2 90105.1 91469 92034.5 93945.4 93815
          93527.9 93021.5 92150.1 90327.3 82376.4 82865.9 90589.3 91881.3 93945.1 93777.4 93375.4 92534.7
          90486.8 80576 -1.21952e+06 80173.8 90515.6 92023.5 93996.7 93799 93266 91698.5 82842.8 -1.21785e+06
          -1.13017e+06 84868.7 91574.2 92623.2 94129.5 93963 93545.9 92617 91193.2 85062.2 85985.6 91996.4
          93011.5 93356.4 94307.3 94201 93968.1 93590.8 93184 92690.8 92880 93484 93757.4 93886
          94474.7 94413 94291 94125.6 93980 93904.9 93958.2 94085.9 94181.8 94234.1 94604.5 94568.8
          94502.6 94421.6 94355.6 94328.6 94346 94389.2 94429.4 94453 94690.2 94667.6 94627.4 94580.3
          94542.3 94525.3 94530.4 94549.1 94569.1 94581.4 94732.4 94715.2 94685 94650.4 94622 94607.8
          94608.9 94619.8 94632.6 94640.9 93984.8 93880.5 93656.6 93279.6 92696.1 91873.2 91269.1 91577.6
          92180.8 92497.7 93978.9 93857.6 93586.2 93090 92192 90419.4 89277.3 90625.9 91969.3 92473.6
          93986.8 93838 93478.1 92694.6 90666.4 80798.9 78948.5 89650 91948.9 92616.1 94041.6 93877.1
          93448.9 92251.9 84817.8 -1.21785e+06 80669.7 90755.5 92519.7 93033.8 94162.1 94024 93690.9 93003.2
          91481.2 85470.2 91049.9 92666.9 93303.2 93546.4 94320.2 94227.3 94025.7 93693.5 93239.8 92765.6
          93198.8 93612.6 93851.4 93960.7 94471.9 94415.5 94303.5 94146.4 93986.5 93911.6 93987.8 94110.7
          94205.4 94254.7 94592.2 94558.5 94495.6 94416.2 94346.5 94319.1 94340.2 94385 94426 94449.4
          94672.7 94651.1 94612.2 94565.9 94527 94509.7 94515.4 94534.6 94554.8 94567 94712.6 94696.1
          94666.9 94632.8 94604.3 94589.9 94590.8 94601.6 94614.3 94622.4 93974.4 93868.9 93638.6 93237
          92566.8 91434.4 91055.6 91893.5 92453.3 92716.1 93967.9 93842.9 93552.5 92967.4 91515.8 84314.7
          83624 90854.4 92265.6 92703.8 93973.3 93814.2 93397.6 92223.8 84804.9 -1.2178e+06 -1.23192e+06 84476.3
          91917.9 92792.7 94022.6 93839.5 93311.1 91613.9 81364.4 -1.21753e+06 -1.21709e+06 85683.4 92400.6 93139
          94137.1 93979.2 93540.8 92269.4 85603.9 84384.8 86129.6 92290.8 93323.8 93599.5 94291.5 94188.4
          93943.8 93458.2 92510.3 92505.5 92928.4 93574.5 93858.6 93973.3 94440.3 94379.8 94252.8 94055.4
          93825.4 93823.4 93936 94087.2 94191.5 94242.7 94558.2 94523.1 94455.4 94365.8 94284.2 94270.1
          94303.3 94355.6 94400 94424.2 94637.1 94615.1 94574.9 94525.9 94484.7 94470.3 94479.7 94501.4
          94522.8 94535.4 94676.2 94659.6 94630 94595.2 94566.1 94552.6 94554.8 94566.6 94579.9 94588.1
          93930.1 93822.5 93586.8 93180.7 92554 91835.9 91652.6 92135.9 92569.4 92788.8 93921.2 93790
          93481.1 92869.5 91603.1 90111.7 90202.8 91696.5 92474.2 92795.1 93920.2 93741.3 93238.8 91757.5
          84144.6 78496.4 82226.3 90741.1 92426.5 92901.8 93959.9 93724.9 92780.2 85710.9 -1.21879e+06 -1.21936e+06
          82044.5 91287.2 92797.7 93207.2 94072.1 93862.9 93025.6 86543.8 -1.21588e+06 83015.3 91194.7 92805.8
          93390.1 93604.5 94231.5 94106.7 93760.7 92714.9 87103.6 92117.7 93135.3 93601.4 93841.8 93946.3
          94383.6 94315.3 94160.7 93874.3 93371.9 93679.3 93890.7 94047.7 94150.5 94200.8 94502.8 94465
          94389.8 94282.9 94176.6 94193.8 94246.6 94304.8 94350.7 94375.4 94582 94559.1 94516.7 94463.9
          94419.3 94409.8 94423.9 94447.9 94470.3 94483.3 94621 94604.1 94573.8 94537.9 94508.1 94495.8
          94499.6 94512.5 94526.2 94534.7
        </DataArray>
        <DataArray type="Float32" Name="saturation" NumberOfComponents="1" format="ascii">
          0.126999 0.126898 0.126715 0.126488 0.126267 0.126099 0.126007 0.125977 0.125981 0.125991 0.127005 0.1269
          0.12671 0.126472 0.126239 0.126064 0.125972 0.125946 0.125954 0.125966 0.127026 0.126916 0.126716 0.126463
          0.126213 0.126026 0.125934 0.125913 0.125925 0.12594 0.127074 0.126963 0.126758 0.126498 0.126239 0.126042
          0.125948 0.125926 0.125937 0.125951 0.127158 0.127049 0.12685 0.1266 0.126351 0.126162 0.126063 0.126028
          0.126028 0.126037 0.127273 0.127172 0.126988 0.126759 0.126535 0.126365 0.126266 0.126222 0.126209 0.126211
          0.127409 0.127318 0.127154 0.126952 0.126758 0.12661 0.126519 0.126471 0.126452 0.126448 0.127543 0.127464
          0.127321 0.127147 0.126981 0.126852 0.126768 0.126721 0.126699 0.126692 0.127652 0.127582 0.127457 0.127305
          0.127159 0.127044 0.126966 0.126921 0.126898 0.126889 0.127713 0.127648 0.127533 0.127393 0.127258 0.127149
          0.127075 0.12703 0.127007 0.126998 0.125991 0.125876 0.125668 0.12541 0.125163 0.124989 0.124913 0.12491
          0.124937 0.12496 0.125991 0.125871 0.12565 0.125371 0.125101 0.124913 0.124843 0.124852 0.124888 0.124915
          0.126003 0.125875 0.125637 0.125329 0.125021 0.124805 0.124746 0.124771 0.124819 0.124854 0.126044 0.125912
          0.125664 0.125341 0.125007 0.124761 0.124709 0.124739 0.124788 0.124825 0.126123 0.125993 0.125753 0.125444
          0.125134 0.124912 0.124835 0.124831 0.124856 0.124887 0.126238 0.126117 0.125896 0.125616 0.125347 0.125164
          0.125081 0.125053 0.125055 0.125072 0.126378 0.12627 0.126075 0.125834 0.125608 0.12546 0.125384 0.12535
          0.125341 0.125346 0.126521 0.126428 0.126263 0.126062 0.125877 0.125752 0.125682 0.125648 0.125635 0.125634
          0.126638 0.126559 0.126418 0.126249 0.126093 0.125982 0.125917 0.125883 0.125869 0.125865 0.126705 0.126632
          0.126505 0.126353 0.126212 0.126109 0.126045 0.126011 0.125996 0.125991 0.124826 0.124677 0.124404 0.12406
          0.123738 0.123542 0.123506 0.123565 0.123644 0.123696 0.124815 0.124653 0.124352 0.123961 0.123579 0.12335
          0.123343 0.123437 0.12354 0.123605 0.12481 0.124632 0.12429 0.123826 0.123333 0.123014 0.123074 0.123233
          0.123372 0.123457 0.124836 0.124649 0.124287 0.12378 0.123198 0.122713 0.122871 0.123071 0.123223 0.123325
          0.12491 0.124726 0.124376 0.123902 0.123401 0.123056 0.123063 0.123131 0.123217 0.123318 0.12503 0.124858
          0.124533 0.124108 0.123695 0.123484 0.123448 0.12345 0.123468 0.123536 0.125186 0.125033 0.12475 0.12439
          0.124061 0.123926 0.123897 0.123891 0.123895 0.123927 0.125355 0.125228 0.124997 0.124716 0.124473 0.12436
          0.124328 0.124321 0.124324 0.124339 0.125498 0.125393 0.125207 0.124988 0.1248 0.124698 0.124659 0.12465
          0.124653 0.12466 0.12558 0.125488 0.125327 0.125139 0.124978 0.12488 0.124838 0.124826 0.124828 0.124832
          0.123513 0.123304 0.122912 0.122408 0.121938 0.12171 0.121765 0.121941 0.122111 0.122212 0.123481 0.123246
          0.122793 0.122172 0.121536 0.121234 0.121401 0.121679 0.121907 0.122037 0.123446 0.123177 0.122632 0.121813
          0.120804 0.120184 0.120708 0.121207 0.121534 0.121722 0.123451 0.123163 0.122573 0.121647 0.120307 0.118444
          0.119953 0.1207 0.121086 0.121359 0.123517 0.123234 0.122668 0.12184 0.120857 0.120105 0.120453 0.120599
          0.12078 0.121146 0.123643 0.123373 0.122836 0.122069 0.121245 0.121079 0.12121 0.121211 0.121154 0.121427
          0.123826 0.123584 0.123112 0.122458 0.121807 0.121838 0.121969 0.122004 0.121991 0.122105 0.124042 0.123847
          0.123482 0.12302 0.122626 0.122594 0.122667 0.122713 0.122733 0.122782 0.124233 0.124081 0.123808 0.123484
          0.123228 0.123161 0.123186 0.123224 0.123253 0.12328 0.124345 0.124216 0.123991 0.123735 0.123534 0.123456
          0.123459 0.123488 0.123517 0.123537 0.122073 0.121776 0.121201 0.120427 0.119686 0.119452 0.119696 0.120067
          0.120374 0.120546 0.12201 0.121662 0.120953 0.119891 0.118667 0.118342 0.118962 0.119585 0.12001 0.120245
          0.121931 0.121512 0.120592 0.11897 0.116275 0.115134 0.117333 0.118606 0.119258 0.119646 0.121906 0.121454
          0.120455 0.118622 0.115021 0.108178 0.114758 0.117208 0.118051 0.118796 0.12196 0.121517 0.120583 0.119076
          0.116984 0.114911 0.116516 0.11603 0.116244 0.117959 0.122087 0.121646 0.120702 0.119111 0.116716 0.117484
          0.118167 0.117878 0.116893 0.118343 0.122303 0.121898 0.121037 0.119608 0.117499 0.118811 0.119495 0.119552
          0.119316 0.119741 0.122594 0.12228 0.12166 0.120795 0.11996 0.120311 0.120676 0.12081 0.120817 0.120957
          0.122863 0.122632 0.122207 0.121687 0.121287 0.121343 0.121514 0.121633 0.121696 0.121762 0.123021 0.122836
          0.122509 0.122136 0.12187 0.121846 0.121939 0.122036 0.122106 0.122152 0.120554 0.120146 0.119323 0.118137
          0.116903 0.116805 0.117383 0.118029 0.118509 0.118773 0.120449 0.119947 0.118847 0.116963 0.114166 0.114412
          0.116071 0.117247 0.117932 0.118314 0.120311 0.119667 0.118066 0.114431 0.107594 0.107381 0.112659 0.115461
          0.11656 0.117314 0.120252 0.119561 0.117853 0.113978 0.106943 0.10136 0.10686 0.112165 0.113533 0.115598
          0.12029 0.119622 0.11813 0.11553 0.111727 0.107207 0.111294 0.10744 0.107499 0.113099 0.1204 0.119686
          0.117987 0.114352 0.107714 0.112312 0.114392 0.112846 0.107931 0.113592 0.120645 0.119948 0.118282 0.11471
          0.107971 0.114118 0.116472 0.116437 0.114997 0.116731 0.121049 0.120539 0.11946 0.117727 0.115385 0.117342
          0.118413 0.118678 0.118531 0.118939 0.121436 0.121088 0.120422 0.119551 0.11883 0.119261 0.119727 0.119974
          0.120068 0.120208 0.121664 0.1214 0.120924 0.120374 0.120009 0.120116 0.120365 0.120566 0.12069 0.120776
          0.119026 0.118508 0.117426 0.115734 0.113562 0.114074 0.115019 0.115957 0.116628 0.116995 0.118875 0.118206
          0.116614 0.113305 0.107296 0.1109 0.112902 0.114864 0.115844 0.11641 0.118674 0.117746 0.114866 0.107401
          0.101412 0.105807 0.106932 0.111854 0.113496 0.115003 0.118593 0.117615 0.11468 0.107338 0.101734 0.101314
          0.10133 0.106359 0.107144 0.112043 0.118618 0.117691 0.115501 0.111552 0.106327 0.105403 0.106125 0.101581
          0.101542 0.106836 0.118684 0.117573 0.114479 0.107366 0.101924 0.106598 0.110405 0.106635 0.102196 0.107189
          0.118928 0.11769 0.114089 0.10699 0.101548 0.107264 0.113116 0.112812 0.107885 0.113359 0.119502 0.11869
          0.116812 0.113295 0.10771 0.113643 0.116172 0.11661 0.115878 0.117079 0.120053 0.119552 0.118543 0.117095
          0.11563 0.11711 0.118051 0.118469 0.118587 0.118851 0.12037 0.120014 0.119358 0.118581 0.1181 0.118452
          0.118916 0.119246 0.119438 0.119572 0.117565 0.116984 0.115798 0.113989 0.111633 0.111424 0.112868 0.11393
          0.11482 0.115298 0.11738 0.116634 0.11493 0.111658 0.106566 0.106584 0.110667 0.112935 0.114145 0.114765
          0.11715 0.11613 0.113217 0.10681 0.101322 0.101482 0.106286 0.110285 0.112463 0.113575 0.117095 0.116084
          0.113682 0.109724 0.105606 0.101313 0.105062 0.106115 0.109519 0.111681 0.117124 0.116051 0.113636 0.109756
          0.105691 0.105008 0.105476 0.101313 0.105843 0.109631 0.11716 0.115699 0.111935 0.106166 0.101311 0.105638
          0.10855 0.106386 0.106778 0.110936 0.117347 0.115006 0.107504 0.101577 0.101323 0.106583 0.111565 0.112131
          0.112368 0.114102 0.118155 0.116952 0.113664 0.107333 0.10689 0.112106 0.114867 0.115703 0.116004 0.116578
          0.118886 0.118238 0.116846 0.114555 0.113895 0.115742 0.116906 0.117505 0.117817 0.118057 0.119288 0.118861
          0.118057 0.117097 0.116726 0.117244 0.11785 0.11829 0.118566 0.118724 0.116199 0.115573 0.114393 0.112874
          0.111198 0.110047 0.110918 0.111294 0.112846 0.113595 0.11596 0.115139 0.113519 0.111495 0.10902 0.106151
          0.109189 0.111083 0.112492 0.11323 0.11569 0.114541 0.111955 0.10925 0.105736 0.10127 0.105724 0.108936
          0.11127 0.112386 0.115766 0.1147 0.112452 0.109283 0.105608 0.101309 0.101303 0.105742 0.109343 0.111345
          0.115949 0.114792 0.111928 0.106473 0.101304 0.101298 0.101297 0.10132 0.106461 0.110728 0.116141 0.114661
          0.111 0.10592 0.101278 0.105088 0.106147 0.106629 0.110644 0.112658 0.116462 0.114156 0.107192 0.101391
          0.101322 0.106468 0.110867 0.112408 0.11393 0.114784 0.117364 0.116183 0.113011 0.107132 0.106948 0.111826
          0.114408 0.115483 0.116129 0.116526 0.118147 0.117515 0.11617 0.114011 0.113639 0.115282 0.116386 0.117047
          0.11745 0.117673 0.118573 0.118155 0.117379 0.11648 0.116199 0.116689 0.117285 0.117752 0.118064 0.118228
          0.114962 0.11421 0.112866 0.111554 0.110344 0.10944 0.108702 0.106383 0.110056 0.111709 0.114574 0.113388
          0.111027 0.109572 0.108437 0.107805 0.10781 0.108619 0.110545 0.111612 0.114114 0.111856 0.106777 0.106029
          0.105599 0.10534 0.105345 0.106001 0.109396 0.111081 0.114589 0.113228 0.110521 0.108245 0.105553 0.101313
          0.101296 0.105779 0.109298 0.111096 0.11518 0.114101 0.111835 0.108732 0.105432 0.101306 0.105103 0.10626
          0.110117 0.111911 0.11573 0.114611 0.111804 0.106468 0.101316 0.101365 0.106482 0.110414 0.112619 0.113579
          0.116354 0.115208 0.112279 0.106903 0.106229 0.106822 0.1115 0.113643 0.114726 0.115251 0.11718 0.116439
          0.114858 0.112398 0.111754 0.112878 0.114721 0.115724 0.116312 0.116612 0.117873 0.117415 0.116547 0.115497
          0.115163 0.115678 0.116414 0.116974 0.117344 0.117536 0.118252 0.117924 0.117346 0.116734 0.116499 0.11674
          0.117171 0.117565 0.117848 0.117996 0.114078 0.113129 0.111254 0.110008 0.109015 0.108275 0.105775 0.101279
          0.106129 0.109534 0.113465 0.111381 0.106681 0.106145 0.105849 0.10705 0.105515 0.1055 0.108118 0.109778
          0.112428 0.106981 0.10139 0.101308 0.101138 0.105152 0.101281 0.101243 0.106068 0.109101 0.113707 0.111501
          0.10665 0.105818 0.104984 0.101312 0.101304 0.105738 0.108777 0.110488 0.114788 0.113718 0.11145 0.109045
          0.105728 0.10131 0.105899 0.109265 0.111174 0.11217 0.115675 0.114884 0.113236 0.110548 0.106452 0.10619
          0.110041 0.11225 0.113365 0.11395 0.116491 0.115846 0.114526 0.11247 0.111164 0.111402 0.11333 0.114482
          0.115161 0.115513 0.11727 0.116822 0.115977 0.114939 0.114424 0.114675 0.11545 0.116077 0.116498 0.116718
          0.117874 0.11757 0.117032 0.11645 0.116177 0.116324 0.116713 0.117093 0.117374 0.117523 0.118198 0.117965
          0.117568 0.117162 0.116964 0.117049 0.117306 0.117586 0.117805 0.117924 0.113956 0.113235 0.111966 0.110691
          0.109129 0.107949 0.105493 0.101299 0.105573 0.108152 0.113587 0.112447 0.110275 0.108733 0.105957 0.106713
          0.105143 0.101224 0.105628 0.10778 0.113204 0.111075 0.106504 0.105614 0.101182 0.105142 0.104947 0.105281
          0.105185 0.105911 0.113857 0.112503 0.10972 0.106037 0.101306 0.101312 0.105443 0.107496 0.106128 0.108861
          0.114799 0.113893 0.112088 0.109514 0.106125 0.105824 0.108564 0.110228 0.110302 0.11162 0.115768 0.115132
          0.11389 0.112189 0.110353 0.11019 0.111775 0.112838 0.113327 0.113884 0.116663 0.116212 0.115363 0.114297
          0.113542 0.113581 0.114281 0.114906 0.115317 0.115594 0.117424 0.117118 0.11657 0.115952 0.115581 0.115624
          0.115973 0.116346 0.116629 0.116793 0.117977 0.117764 0.117398 0.117012 0.116788 0.116809 0.117008 0.117248
          0.117445 0.117557 0.118265 0.118097 0.117814 0.117524 0.117353 0.11736 0.117499 0.117682 0.11784 0.117929
          0.114224 0.11368 0.112703 0.111508 0.110101 0.108283 0.10564 0.105267 0.106979 0.107903 0.114019 0.113286
          0.111947 0.1104 0.108427 0.10578 0.101301 0.101254 0.105255 0.105677 0.113832 0.112725 0.110464 0.108272
          0.105721 0.10501 0.101287 0.104919 0.101087 0.101246 0.114109 0.112839 0.109953 0.105966 0.105026 0.101307
          0.101241 0.105506 0.10131 0.105851 0.114863 0.11378 0.111177 0.106693 0.106019 0.106098 0.106312 0.108992
          0.106619 0.110214 0.115857 0.115171 0.113696 0.111424 0.110463 0.11087 0.111486 0.112532 0.112418 0.113545
          0.116798 0.116383 0.115575 0.114528 0.113979 0.114159 0.114558 0.115008 0.115274 0.115585 0.11756 0.117306
          0.116847 0.116326 0.116021 0.116045 0.116248 0.1165 0.116704 0.116845 0.118089 0.11792 0.11763 0.117319
          0.117123 0.117103 0.117213 0.117372 0.117514 0.117601 0.118358 0.118226 0.118004 0.117771 0.117616 0.117587
          0.11766 0.11778 0.117892 0.117959 0.114574 0.114111 0.113237 0.112064 0.110793 0.109387 0.10766 0.106945
          0.108071 0.108832 0.114432 0.113815 0.112585 0.110718 0.10923 0.107712 0.105421 0.105242 0.106791 0.107733