<?xml version="1.0"?>
<VTKFile type="UnstructuredGrid" version="0.1" byte_order="LittleEndian">
  <UnstructuredGrid>
    <Piece NumberOfCells="15" NumberOfPoints="64">
      <CellData Scalars="p (Pa)">
        <DataArray type="Float32" Name="p (Pa)" NumberOfComponents="1" format="ascii">
          30883.6 29847.9 27698.4 24003.1 17880.4 9770.26 2693.71 -1123.34 -3274.5 -2810.32 -3660.78 -1960.05
          2207.68 3465.15 3603.24
        </DataArray>
        <DataArray type="Float32" Name="saturation" NumberOfComponents="1" format="ascii">
          0.295654 0.294684 0.292744 0.289613 0.284926 0.279511 0.275383 0.27335 0.272257 0.27249 0.272065 0.27292
          0.275117 0.27581 0.275887
        </DataArray>
        <DataArray type="Float32" Name="process rank" NumberOfComponents="1" format="ascii">
          0 0 0 0 0 0 0 0 0 0 0 0
          0 0 0
        </DataArray>
      </CellData>
      <Points>
        <DataArray type="Float32" Name="Coordinates" NumberOfComponents="3" format="ascii">
          -0.04 -0.04 -0.15 0.04 -0.04 -0.15 -0.04 0.04 -0.15 0.04 0.04 -0.15
          -0.04 -0.04 -0.14 0.04 -0.04 -0.14 -0.04 0.04 -0.14 0.04 0.04 -0.14
          -0.04 -0.04 -0.13 0.04 -0.04 -0.13 -0.04 0.04 -0.13 0.04 0.04 -0.13
          -0.04 -0.04 -0.12 0.04 -0.04 -0.12 -0.04 0.04 -0.12 0.04 0.04 -0.12
          -0.04 -0.04 -0.11 0.04 -0.04 -0.11 -0.04 0.04 -0.11 0.04 0.04 -0.11
          -0.04 -0.04 -0.1 0.04 -0.04 -0.1 -0.04 0.04 -0.1 0.04 0.04 -0.1
          -0.04 -0.04 -0.09 0.04 -0.04 -0.09 -0.04 0.04 -0.09 0.04 0.04 -0.09
          -0.04 -0.04 -0.08 0.04 -0.04 -0.08 -0.04 0.04 -0.08 0.04 0.04 -0.08
          -0.04 -0.04 -0.07 0.04 -0.04 -0.07 -0.04 0.04 -0.07 0.04 0.04 -0.07
          -0.04 -0.04 -0.06 0.04 -0.04 -0.06 -0.04 0.04 -0.06 0.04 0.04 -0.06
          -0.04 -0.04 -0.05 0.04 -0.04 -0.05 -0.04 0.04 -0.05 0.04 0.04 -0.05
          -0.04 -0.04 -0.04 0.04 -0.04 -0.04 -0.04 0.04 -0.04 0.04 0.04 -0.04
          -0.04 -0.04 -0.03 0.04 -0.04 -0.03 -0.04 0.04 -0.03 0.04 0.04 -0.03
          -0.04 -0.04 -0.02 0.04 -0.04 -0.02 -0.04 0.04 -0.02 0.04 0.04 -0.02
          -0.04 -0.04 -0.01 0.04 -0.04 -0.01 -0.04 0.04 -0.01 0.04 0.04 -0.01
          -0.04 -0.04 8.67362e-18 0.04 -0.04 8.67362e-18 -0.04 0.04 8.67362e-18 0.04 0.04 8.67362e-18
        </DataArray>
      </Points>
      <Cells>
        <DataArray type="Int32" Name="connectivity" NumberOfComponents="1" format="ascii">
          0 1 3 2 4 5 7 6 4 5 7 6
          8 9 11 10 8 9 11 10 12 13 15 14
          12 13 15 14 16 17 19 18 16 17 19 18
          20 21 23 22 20 21 23 22 24 25 27 26
          24 25 27 26 28 29 31 30 28 29 31 30
          32 33 35 34 32 33 35 34 36 37 39 38
          36 37 39 38 40 41 43 42 40 41 43 42
          44 45 47 46 44 45 47 46 48 49 51 50
          48 49 51 50 52 53 55 54 52 53 55 54
          56 57 59 58 56 57 59 58 60 61 63 62
        </DataArray>
        <DataArray type="Int32" Name="offsets" NumberOfComponents="1" format="ascii">
          8 16 24 32 40 48 56 64 72 80 88 96
          104 112 120
        </DataArray>
        <DataArray type="UInt8" Name="types" NumberOfComponents="1" format="ascii">
          12 12 12 12 12 12 12 12 12 12 12 12
          12 12 12
        </DataArray>
      </Cells>
    </Piece>
  </UnstructuredGrid>
</VTKFile>
