<?xml version="1.0"?>
<VTKFile type="UnstructuredGrid" version="0.1" byte_order="LittleEndian">
  <UnstructuredGrid>
    <Piece NumberOfCells="735" NumberOfPoints="1024">
      <CellData Scalars="p (Pa)">
        <DataArray type="Float32" Name="p (Pa)" NumberOfComponents="1" format="ascii">
          31197.3 30889.9 30399.6 29946 29727.3 29732.5 29801 31216.4 30892.6 30371.4 29888.1 29674.8
          29709.6 29800.6 31316.7 30986.2 30450 29950.6 29748 29809.4 29919.1 31550.1 31250 30769.9
          30330.5 30143 30181.2 30271.9 31879.5 31631.5 31242 30891.8 30731.8 30742.1 30800.4 32201.9
          32004.6 31698.9 31425.7 31290.3 31280.7 31312.8 32400.2 32232.7 31975 31744 31622.3 31602.8
          31621.5 30430 30014 29338.5 28715.4 28474.3 28567.7 28715.8 30424.3 29968.7 29210.6 28494.5
          28269.4 28445.8 28651.8 30510.1 30027 29203 28395.9 28193.3 28457.6 28720.3 30777.8 30343.9
          29626.8 28961.1 28762 28931.8 29143.8 31178.9 30830.3 30274.3 29784.7 29621.9 29710.9 29844.1
          31581.7 31316.2 30905.1 30551.8 30415.5 30451.5 30526.4 31831.5 31614.5 31283.6 30999.8 30876.3
          30886.7 30933 28993 28326.8 27200.8 26135.6 25866.3 26214.9 26572.5 28924.1 28147.7 26757.9
          25326.4 25134.8 25789.4 26331.9 28965.3 28089.2 26417.8 24459.3 24375.9 25461.7 26229.7 29303.8
          28531.8 27160.9 25787.4 25608.8 26203.7 26803.7 29859.4 29258.4 28259.2 27381.6 27265 27588.6
          27939.2 30441.7 30013.2 29341.3 28791.8 28681.3 28844.8 29032.2 30806.8 30477.3 29977.1 29575.3
          29462.4 29550.9 29665.3 26923.9 25813.8 23813.1 21764.1 21525.9 22485.2 23282.8 26731.7 25336.4
          22515.2 18925.4 19132.6 21273.2 22648.3 26668.9 24961 20987 13806.3 14906.6 19740.3 22060.7
          27114.7 25643.9 22697.5 19144.8 19254 21033.3 22839.9 27918.1 26786.1 24729.3 22826.3 23098.5
          24020.1 24930.9 28815 28069.4 26853.3 25894.7 25946 26404.4 26836.4 29382.2 28852 28040.7
          27432.3 27382.7 27634.8 27880.4 24360.2 22596.2 19163.1 15142.4 15166.6 17308.3 18858.4 23980.2
          21589.4 15910.9 5176.63 8066.36 14422 17524.1 23738.7 20533.2 10494.3 -37192.6 -21598.1 8939.21
          15800.6 24310.5 21569.9 15052.3 4224.91 6202.48 10147.1 16518.5 25433.2 23231.8 18433.8 13210.5
          16112.6 18383.6 20724.1 26823.9 25517 23202 21399.8 22128.7 23182.2 24082.6 27702.9 26862.5
          25543.4 24619.9 24769 25307.6 25764.2 21581.3 19070.6 13966 7364.71 7737.97 11084 13534.5
          21009.2 17480.4 8295.07 -15740.4 -4590.28 6284.45 11446.8 20607.5 15682 -1787.57 -97310.2 -55927.2
          -5426.07 8151.28 21278.6 16701.8 3594.52 -27633 -14637.6 -28036.6 7223.28 22711 18475 4636.59
          -19581.1 5748.75 10215.8 15846.7 24782.5 22631.8 18245.6 14895.6 17736.4 19693.8 21273.1 26061.5
          24839.7 22842.1 21566.1 22103.8 23004.3 23705.5 18918.2 15695.6 9318.49 1666.09 262.615 3942.96
          7470 18223.2 13707.9 2800.12 -17482.4 -15790.2 -1665.92 5235.07 17884.5 11712.5 -9358.03 -105357
          -86767.4 -15636.9 1883.2 18780.9 12441.7 -9454.89 -86888.1 -38015.6 -31817.8 2690.46 20549.8 13748.3
          -26539 -22001.4 120.759 6762.8 12979.3 23282.5 20416.8 13790.7 11904.5 15128.3 17577.3 19379.6
          24886.9 23409.8 20938.3 19686.6 20345.7 21420.1 22224.5 16639.8 12535.5 4625.03 -3799.01 -8360.82
          -6371.99 122.512 15823.1 9702.29 -4380.11 -21207.9 -26737.6 -9956.72 -1139.21 15997.3 8945.96 -13906.3
          -94288.9 -119217 -20951.3 -2629.2 17671.5 11562.8 -7983.3 -85999.8 -30390.9 -8500.89 3317.28 20167.4
          15497.1 2347.39 -18093.2 1128.48 8398.02 12532.8 22910.3 20562.7 15984.3 12602.4 14936 17202.6
          18690.8 24494.6 23142.9 20949.2 19501.2 19891.1 20831.4 21542.2 15167.5 9947.52 -438.162 -9570.33
          -21041 -33453.5 -9452.46 14083.9 3167.48 -29057.9 -29835.1 -43586.2 -20916.4 -8486.93 15087.5 6578.79
          -30664.2 -102949 -124166 -25407.3 -8547.92 17689.9 12433.2 -1854.73 -33617.8 -21413.1 -4261.65 2954.78
          20667.4 17469.7 10622.1 2651.56 5625.67 10057.1 12733.5 23265.7 21521.6 18446.9 15872.2 16309.6
          17699.6 18730.9 24707.3 23601.5 21838.6 20479.5 20399.6 20975.4 21484.8 15258.9 10737.5 1486.02
          -11417.7 -36910.9 -43392.2 -15200.5 14792.4 8448.69 -6301.67 -25080.7 -65067.9 -30759.8 -15880.5 15752.8
          9256.54 -10194.8 -54790 -95717.9 -32391.8 -24892.9 18474.2 14352.3 4848.82 -9015.5 -13472.7 -3594.42
          1301.36 21491 19125.2 14588.7 9731.05 8884.28 11197.7 12987.3 23903.4 22561.9 20282.8 18211.1
          17737.8 18410.5 19081.5 25201.9 24300.1 22857.3 21609.3 21203.8 21444.9 21765.2 15958.2 11953.9
          3382.53 -9805.92 -28174.8 -26134.4 -13866.9 15801.4 10667.8 -2246.2 -24143.7 -85502.6 -40225.9 -17891.4
          16643.9 10304.5 -17333.3 -51549.4 -125634 -71040.6 -23874.7 19346.4 15674.2 6893.43 -4548.8 -13563.9
          -5386.26 1694.29 22274.6 20283.1 16491.1 12342.9 10384 11909.4 13580.1 24531.9 23401 21471.1
          19585 18751.1 19070.7 19576.4 25725.8 24948.1 23683.3 22497 21924.8 21967.5 22172.7 16718.5
          13031.9 4943.99 -8163.48 -23221 -24028 -10974.5 16742.1 12270.4 861.708 -24261.5 -73727.7 -59785.3
          -15277.4 17652.5 12529.6 -4772.82 -87756.1 -112468 -31419.6 -9679.29 20131.3 16884.1 9140.96 -4862.58
          -11083.8 -987.282 4823.8 22883.1 21075.9 17582.4 13357.7 11467.7 13078.4 14633.9 25014.8 23978.3
          22182.2 20329.9 19429.8 19679.3 20130 26141.1 25422.5 24235.3 23071.4 22445.6 22418.9 22579.1
          17267.9 13722.2 5857.34 -6855.19 -17851.9 -12758.4 -5623.8 17377.7 13228.3 2725.37 -20559.2 -56081.2
          -23000.7 -7448.74 18352 14055.5 2376.5 -27192.7 -97043.6 -19552.5 -3308.03 20620.4 17605.6 10722
          -607.025 -8724.37 1768.35 7173.11 23232.4 21469.6 18043.2 13884.4 12041.1 13918.8 15523.4 25296.4
          24274.8 22484.2 20616.8 19762.6 20090.3 20570.7 26393.4 25686.8 24508.1 23340.8 22727.2 22719.1
          22886.9 17521.9 13928.2 5674.32 -8697.57 -16090.3 -7833.78 -1972.94 17605.3 13270.5 840.169 -47691.8
          -67463 -15868.2 -3258.59 18533.4 14081.2 1378.34 -34112.6 -110336 -17013.6 -484.077 20698.3 17401.9
          9164.64 -6989.1 -11216.8 2470.96 8375.3 23299.5 21385.3 17453 12321.1 11471.5 14150.7 16004.9
          25379.2 24300.9 22363.7 20317.1 19683.1 20231.1 20806.6 26485.1 25757 24531.1 23322.7 22771.9
          22840.5 23048.4 17576.5 13999.5 6042.16 -5993.02 -11020.8 -4907.48 -68.971 17605.8 13197.9 1352.97
          -25605.6 -32115.3 -10447.5 -1086.34 18389.1 13227.4 -5272.45 -103889 -101562 -14628.6 849.937 20515.7
          16549.3 3765.72 -55333.1 -15677.1 2455.2 8830.46 23191.9 21020.2 16039.8 7696.12 10223.5 14021.2
          16141 25329 24170.2 22005.9 19596 19373.2 20180.7 20851.7 26458.8 25701.9 24412.9 23141.8
          22672.8 22821.9 23068.6
        </DataArray>
        <DataArray type="Float32" Name="saturation" NumberOfComponents="1" format="ascii">
          0.295952 0.29566 0.295198 0.294775 0.294573 0.294578 0.294641 0.29597 0.295662 0.295171 0.294722 0.294525
          0.294557 0.294641 0.296066 0.295751 0.295245 0.294779 0.294592 0.294649 0.29475 0.29629 0.296002 0.295546
          0.295133 0.294958 0.294994 0.295078 0.296608 0.296368 0.295994 0.295661 0.29551 0.29552 0.295575 0.296921
          0.296729 0.296433 0.29617 0.296041 0.296031 0.296062 0.297115 0.296951 0.2967 0.296477 0.296359 0.29634
          0.296358 0.295226 0.294838 0.294216 0.29365 0.293433 0.293517 0.293651 0.295221 0.294796 0.294099 0.293452
          0.29325 0.293408 0.293593 0.295301 0.29485 0.294092 0.293363 0.293182 0.293418 0.293655 0.295553 0.295146
          0.29448 0.293872 0.293692 0.293846 0.294038 0.295934 0.295603 0.295081 0.294626 0.294476 0.294558 0.294681
          0.29632 0.296065 0.295674 0.295341 0.295213 0.295246 0.295317 0.296561 0.296352 0.296034 0.295764 0.295647
          0.295657 0.2957 0.293901 0.293301 0.292307 0.291389 0.29116 0.291457 0.291763 0.293839 0.293142 0.291923
          0.290706 0.290546 0.291095 0.291557 0.293876 0.29309 0.29163 0.289986 0.289918 0.290819 0.291469 0.294184
          0.293485 0.292273 0.291094 0.290943 0.291447 0.291963 0.294695 0.294143 0.293241 0.292465 0.292363 0.292647
          0.292956 0.295237 0.294838 0.294218 0.293719 0.293619 0.293767 0.293937 0.295581 0.295271 0.294804 0.294433
          0.294329 0.294411 0.294516 0.292067 0.291116 0.289459 0.287831 0.287647 0.288396 0.289031 0.2919 0.290714
          0.28842 0.285686 0.285838 0.287452 0.288525 0.291846 0.290401 0.287232 0.282104 0.282845 0.28629 0.288063
          0.292232 0.290972 0.288564 0.285847 0.285928 0.287267 0.288677 0.292938 0.291947 0.290209 0.288666 0.288883
          0.289627 0.290376 0.29374 0.293072 0.292006 0.291185 0.291228 0.291619 0.291991 0.294256 0.293774 0.293047
          0.29251 0.292466 0.292688 0.292904 0.289905 0.288484 0.285861 0.283006 0.283022 0.284516 0.285637 0.289594
          0.287696 0.283535 0.276776 0.278471 0.282517 0.28467 0.289398 0.286886 0.279963 0.258775 0.264226 0.279
          0.283458 0.289864 0.287681 0.282944 0.276235 0.277368 0.279745 0.283958 0.290795 0.28899 0.285327 0.28171
          0.283675 0.28529 0.287031 0.29198 0.290866 0.288966 0.287549 0.288116 0.28895 0.289678 0.292748 0.292013
          0.290888 0.290118 0.290242 0.29069 0.291074 0.287689 0.285793 0.282211 0.278052 0.278274 0.280335 0.281924
          0.287249 0.284639 0.278609 0.266572 0.271606 0.277416 0.280565 0.286942 0.283376 0.273008 0.244543 0.253406
          0.2712 0.278522 0.287456 0.284087 0.275882 0.261991 0.267035 0.261847 0.277968 0.288575 0.285357 0.276468
          0.265013 0.277105 0.279788 0.28349 0.290253 0.288512 0.28519 0.282838 0.284822 0.286255 0.287452 0.291326
          0.2903 0.288679 0.287678 0.288096 0.288808 0.289371 0.285681 0.283386 0.279232 0.274823 0.274074 0.276077
          0.278114 0.285174 0.282039 0.275442 0.265855 0.266551 0.273071 0.276809 0.284929 0.280735 0.269353 0.243158
          0.246501 0.266615 0.274941 0.28558 0.281206 0.269309 0.246477 0.258515 0.260537 0.275381 0.286899 0.282066
          0.262383 0.264071 0.273999 0.277696 0.281557 0.289031 0.286798 0.282094 0.280859 0.282996 0.284708 0.286021
          0.290339 0.289133 0.287195 0.286249 0.286744 0.287565 0.288191 0.284044 0.281267 0.276461 0.271996 0.269811
          0.270745 0.274 0.283474 0.279469 0.271709 0.264377 0.262312 0.269082 0.273342 0.283595 0.279004 0.267346
          0.245087 0.240965 0.264476 0.272581 0.284776 0.28064 0.269987 0.24665 0.261025 0.269747 0.275728 0.28661
          0.283249 0.275194 0.265607 0.274534 0.278671 0.281266 0.288733 0.286909 0.283586 0.281311 0.282865 0.284441
          0.285514 0.290015 0.288919 0.287203 0.286111 0.286402 0.287113 0.287659 0.283023 0.279621 0.273706 0.269257
          0.264441 0.259989 0.26931 0.28229 0.275645 0.261488 0.261217 0.256818 0.26449 0.269753 0.282968 0.277588
          0.260931 0.243563 0.240235 0.262795 0.269725 0.284789 0.281201 0.272974 0.259935 0.264297 0.271767 0.275527
          0.286988 0.284632 0.280043 0.27536 0.277034 0.279689 0.281396 0.289017 0.287643 0.285336 0.283508 0.283812
          0.284796 0.285543 0.290191 0.289287 0.287889 0.286845 0.286785 0.287223 0.287615 0.283086 0.280116 0.274726
          0.268428 0.258865 0.256875 0.266798 0.282768 0.278702 0.270779 0.262915 0.251145 0.260898 0.266514 0.283425
          0.279194 0.268974 0.253702 0.244828 0.260344 0.262984 0.285356 0.28247 0.276588 0.26951 0.267532 0.272097
          0.274627 0.28762 0.285833 0.28263 0.279487 0.278966 0.280407 0.281563 0.289532 0.288457 0.286697 0.285165
          0.284824 0.28531 0.285801 0.290602 0.289856 0.288691 0.287711 0.287398 0.287584 0.287832 0.283568 0.280891
          0.275764 0.26915 0.261798 0.26253 0.267363 0.283459 0.280072 0.272775 0.263262 0.246747 0.257829 0.265689
          0.284046 0.279844 0.265916 0.254565 0.240023 0.249773 0.263362 0.285997 0.283371 0.277773 0.271626 0.267492
          0.271219 0.274839 0.28823 0.286697 0.283939 0.281142 0.279893 0.280862 0.281954 0.290046 0.289126 0.287604
          0.286174 0.285558 0.285793 0.286167 0.291042 0.29039 0.289353 0.288406 0.287957 0.28799 0.28815 0.284099
          0.281592 0.276643 0.269903 0.263608 0.263305 0.268625 0.284116 0.281095 0.274392 0.263218 0.249181 0.252427
          0.266765 0.284762 0.281263 0.271517 0.24631 0.242004 0.260673 0.269207 0.286582 0.284216 0.279123 0.271473
          0.268576 0.27342 0.276574 0.288711 0.2873 0.284712 0.281807 0.280579 0.281623 0.28266 0.290446 0.289593
          0.288158 0.286732 0.286058 0.286244 0.286582 0.291394 0.290786 0.289802 0.288862 0.288365 0.288344 0.28847
          0.284488 0.282048 0.277167 0.270516 0.265705 0.26784 0.271104 0.284566 0.281721 0.275401 0.264629 0.253366
          0.263691 0.270236 0.285267 0.282271 0.275209 0.262148 0.24459 0.265024 0.27224 0.286952 0.284729 0.280106
          0.273618 0.269644 0.274879 0.277938 0.28899 0.287603 0.285043 0.282156 0.280947 0.282179 0.283267 0.290681
          0.289835 0.288395 0.28695 0.286306 0.286552 0.286915 0.291609 0.291009 0.290026 0.289077 0.288588 0.288581
          0.288715 0.284669 0.282186 0.277062 0.269656 0.266426 0.270056 0.272914 0.284729 0.281749 0.27438 0.255632
          0.250586 0.266519 0.272265 0.285399 0.282288 0.274668 0.259771 0.242344 0.266046 0.273682 0.287012 0.284583
          0.279138 0.270453 0.268517 0.275261 0.278657 0.289044 0.287538 0.28462 0.281128 0.280581 0.282335 0.2836
          0.29075 0.289856 0.2883 0.286723 0.286247 0.286658 0.287094 0.291688 0.291068 0.290045 0.289063 0.288623
          0.288678 0.288843 0.284708 0.282233 0.277275 0.270927 0.268604 0.271451 0.273899 0.284729 0.281701 0.274655
          0.262723 0.260437 0.26886 0.273369 0.285294 0.281721 0.271274 0.243404 0.2438 0.267039 0.274385 0.286873
          0.28398 0.275977 0.25356 0.266598 0.275252 0.278934 0.288958 0.287257 0.283624 0.278249 0.279793 0.282248
          0.283695 0.290708 0.289749 0.28802 0.286182 0.286016 0.28662 0.287128 0.291666 0.291021 0.289948 0.288918
          0.288545 0.288663 0.288859
        </DataArray>
        <DataArray type="Float32" Name="process rank" NumberOfComponents="1" format="ascii">
          0 0 0 0 0 0 0 0 0 0 0 0
          0 0 0 0 0 0 0 0 0 0 0 0
          0 0 0 0 0 0 0 0 0 0 0 0
          0 0 0 0 0 0 0 0 0 0 0 0
          0 0 0 0 0 0 0 0 0 0 0 0
          0 0 0 0 0 0 0 0 0 0 0 0
          0 0 0 0 0 0 0 0 0 0 0 0
          0 0 0 0 0 0 0 0 0 0 0 0
          0 0 0 0 0 0 0 0 0 0 0 0
          0 0 0 0 0 0 0 0 0 0 0 0
          0 0 0 0 0 0 0 0 0 0 0 0
          0 0 0 0 0 0 0 0 0 0 0 0
          0 0 0 0 0 0 0 0 0 0 0 0
          0 0 0 0 0 0 0 0 0 0 0 0
          0 0 0 0 0 0 0 0 0 0 0 0
          0 0 0 0 0 0 0 0 0 0 0 0
          0 0 0 0 0 0 0 0 0 0 0 0
          0 0 0 0 0 0 0 0 0 0 0 0
          0 0 0 0 0 0 0 0 0 0 0 0
          0 0 0 0 0 0 0 0 0 0 0 0
          0 0 0 0 0 0 0 0 0 0 0 0
          0 0 0 0 0 0 0 0 0 0 0 0
          0 0 0 0 0 0 0 0 0 0 0 0
          0 0 0 0 0 0 0 0 0 0 0 0
          0 0 0 0 0 0 0 0 0 0 0 0
          0 0 0 0 0 0 0 0 0 0 0 0
          0 0 0 0 0 0 0 0 0 0 0 0
          0 0 0 0 0 0 0 0 0 0 0 0
          0 0 0 0 0 0 0 0 0 0 0 0
          0 0 0 0 0 0 0 0 0 0 0 0
          0 0 0 0 0 0 0 0 0 0 0 0
          0 0 0 0 0 0 0 0 0 0 0 0
          0 0 0 0 0 0 0 0 0 0 0 0
          0 0 0 0 0 0 0 0 0 0 0 0
          0 0 0 0 0 0 0 0 0 0 0 0
          0 0 0 0 0 0 0 0 0 0 0 0
          0 0 0 0 0 0 0 0 0 0 0 0
          0 0 0 0 0 0 0 0 0 0 0 0
          0 0 0 0 0 0 0 0 0 0 0 0
          0 0 0 0 0 0 0 0 0 0 0 0
          0 0 0 0 0 0 0 0 0 0 0 0
          0 0 0 0 0 0 0 0 0 0 0 0
          0 0 0 0 0 0 0 0 0 0 0 0
          0 0 0 0 0 0 0 0 0 0 0 0
          0 0 0 0 0 0 0 0 0 0 0 0
          0 0 0 0 0 0 0 0 0 0 0 0
          0 0 0 0 0 0 0 0 0 0 0 0
          0 0 0 0 0 0 0 0 0 0 0 0
          0 0 0 0 0 0 0 0 0 0 0 0
          0 0 0 0 0 0 0 0 0 0 0 0
          0 0 0 0 0 0 0 0 0 0 0 0
          0 0 0 0 0 0 0 0 0 0 0 0
          0 0 0 0 0 0 0 0 0 0 0 0
          0 0 0 0 0 0 0 0 0 0 0 0
          0 0 0 0 0 0 0 0 0 0 0 0
          0 0 0 0 0 0 0 0 0 0 0 0
          0 0 0 0 0 0 0 0 0 0 0 0
          0 0 0 0 0 0 0 0 0 0 0 0
          0 0 0 0 0 0 0 0 0 0 0 0
          0 0 0 0 0 0 0 0 0 0 0 0
          0 0 0 0 0 0 0 0 0 0 0 0
          0 0 0
        </DataArray>
      </CellData>
      <Points>
        <DataArray type="Float32" Name="Coordinates" NumberOfComponents="3" format="ascii">
          -0.04 -0.04 -0.15 -0.0285714 -0.04 -0.15 -0.04 -0.0285714 -0.15 -0.0285714 -0.0285714 -0.15
          -0.04 -0.04 -0.14 -0.0285714 -0.04 -0.14 -0.04 -0.0285714 -0.14 -0.0285714 -0.0285714 -0.14
          -0.0171429 -0.04 -0.15 -0.0171429 -0.0285714 -0.15 -0.0171429 -0.04 -0.14 -0.0171429 -0.0285714 -0.14
          -0.00571429 -0.04 -0.15 -0.00571429 -0.0285714 -0.15 -0.00571429 -0.04 -0.14 -0.00571429 -0.0285714 -0.14
          0.00571429 -0.04 -0.15 0.00571429 -0.0285714 -0.15 0.00571429 -0.04 -0.14 0.00571429 -0.0285714 -0.14
          0.0171429 -0.04 -0.15 0.0171429 -0.0285714 -0.15 0.0171429 -0.04 -0.14 0.0171429 -0.0285714 -0.14
          0.0285714 -0.04 -0.15 0.0285714 -0.0285714 -0.15 0.0285714 -0.04 -0.14 0.0285714 -0.0285714 -0.14
          0.04 -0.04 -0.15 0.04 -0.0285714 -0.15 0.04 -0.04 -0.14 0.04 -0.0285714 -0.14
          -0.04 -0.0171429 -0.15 -0.0285714 -0.0171429 -0.15 -0.04 -0.0171429 -0.14 -0.0285714 -0.0171429 -0.14
          -0.0171429 -0.0171429 -0.15 -0.0171429 -0.0171429 -0.14 -0.00571429 -0.0171429 -0.15 -0.00571429 -0.0171429 -0.14
          0.00571429 -0.0171429 -0.15 0.00571429 -0.0171429 -0.14 0.0171429 -0.0171429 -0.15 0.0171429 -0.0171429 -0.14
          0.0285714 -0.0171429 -0.15 0.0285714 -0.0171429 -0.14 0.04 -0.0171429 -0.15 0.04 -0.0171429 -0.14
          -0.04 -0.00571429 -0.15 -0.0285714 -0.00571429 -0.15 -0.04 -0.00571429 -0.14 -0.0285714 -0.00571429 -0.14
          -0.0171429 -0.00571429 -0.15 -0.0171429 -0.00571429 -0.14 -0.00571429 -0.00571429 -0.15 -0.00571429 -0.00571429 -0.14
          0.00571429 -0.00571429 -0.15 0.00571429 -0.00571429 -0.14 0.0171429 -0.00571429 -0.15 0.0171429 -0.00571429 -0.14
          0.0285714 -0.00571429 -0.15 0.0285714 -0.00571429 -0.14 0.04 -0.00571429 -0.15 0.04 -0.00571429 -0.14
          -0.04 0.00571429 -0.15 -0.0285714 0.00571429 -0.15 -0.04 0.00571429 -0.14 -0.0285714 0.00571429 -0.14
          -0.0171429 0.00571429 -0.15 -0.0171429 0.00571429 -0.14 -0.00571429 0.00571429 -0.15 -0.00571429 0.00571429 -0.14
          0.00571429 0.00571429 -0.15 0.00571429 0.00571429 -0.14 0.0171429 0.00571429 -0.15 0.0171429 0.00571429 -0.14
          0.0285714 0.00571429 -0.15 0.0285714 0.00571429 -0.14 0.04 0.00571429 -0.15 0.04 0.00571429 -0.14
          -0.04 0.0171429 -0.15 -0.0285714 0.0171429 -0.15 -0.04 0.0171429 -0.14 -0.0285714 0.0171429 -0.14
          -0.0171429 0.0171429 -0.15 -0.0171429 0.0171429 -0.14 -0.00571429 0.0171429 -0.15 -0.00571429 0.0171429 -0.14
          0.00571429 0.0171429 -0.15 0.00571429 0.0171429 -0.14 0.0171429 0.0171429 -0.15 0.0171429 0.0171429 -0.14
          0.0285714 0.0171429 -0.15 0.0285714 0.0171429 -0.14 0.04 0.0171429 -0.15 0.04 0.0171429 -0.14
          -0.04 0.0285714 -0.15 -0.0285714 0.0285714 -0.15 -0.04 0.0285714 -0.14 -0.0285714 0.0285714 -0.14
          -0.0171429 0.0285714 -0.15 -0.0171429 0.0285714 -0.14 -0.00571429 0.0285714 -0.15 -0.00571429 0.0285714 -0.14
          0.00571429 0.0285714 -0.15 0.00571429 0.0285714 -0.14 0.0171429 0.0285714 -0.15 0.0171429 0.0285714 -0.14
          0.0285714 0.0285714 -0.15 0.0285714 0.0285714 -0.14 0.04 0.0285714 -0.15 0.04 0.0285714 -0.14
          -0.04 0.04 -0.15 -0.0285714 0.04 -0.15 -0.04 0.04 -0.14 -0.0285714 0.04 -0.14
          -0.0171429 0.04 -0.15 -0.0171429 0.04 -0.14 -0.00571429 0.04 -0.15 -0.00571429 0.04 -0.14
          0.00571429 0.04 -0.15 0.00571429 0.04 -0.14 0.0171429 0.04 -0.15 0.0171429 0.04 -0.14
          0.0285714 0.04 -0.15 0.0285714 0.04 -0.14 0.04 0.04 -0.15 0.04 0.04 -0.14
          -0.04 -0.04 -0.13 -0.0285714 -0.04 -0.13 -0.04 -0.0285714 -0.13 -0.0285714 -0.0285714 -0.13
          -0.0171429 -0.04 -0.13 -0.0171429 -0.0285714 -0.13 -0.00571429 -0.04 -0.13 -0.00571429 -0.0285714 -0.13
          0.00571429 -0.04 -0.13 0.00571429 -0.0285714 -0.13 0.0171429 -0.04 -0.13 0.0171429 -0.0285714 -0.13
          0.0285714 -0.04 -0.13 0.0285714 -0.0285714 -0.13 0.04 -0.04 -0.13 0.04 -0.0285714 -0.13
          -0.04 -0.0171429 -0.13 -0.0285714 -0.0171429 -0.13 -0.0171429 -0.0171429 -0.13 -0.00571429 -0.0171429 -0.13
          0.00571429 -0.0171429 -0.13 0.0171429 -0.0171429 -0.13 0.0285714 -0.0171429 -0.13 0.04 -0.0171429 -0.13
          -0.04 -0.00571429 -0.13 -0.0285714 -0.00571429 -0.13 -0.0171429 -0.00571429 -0.13 -0.00571429 -0.00571429 -0.13
          0.00571429 -0.00571429 -0.13 0.0171429 -0.00571429 -0.13 0.0285714 -0.00571429 -0.13 0.04 -0.00571429 -0.13
          -0.04 0.00571429 -0.13 -0.0285714 0.00571429 -0.13 -0.0171429 0.00571429 -0.13 -0.00571429 0.00571429 -0.13
          0.00571429 0.00571429 -0.13 0.0171429 0.00571429 -0.13 0.0285714 0.00571429 -0.13 0.04 0.00571429 -0.13
          -0.04 0.0171429 -0.13 -0.0285714 0.0171429 -0.13 -0.0171429 0.0171429 -0.13 -0.00571429 0.0171429 -0.13
          0.00571429 0.0171429 -0.13 0.0171429 0.0171429 -0.13 0.0285714 0.0171429 -0.13 0.04 0.0171429 -0.13
          -0.04 0.0285714 -0.13 -0.0285714 0.0285714 -0.13 -0.0171429 0.0285714 -0.13 -0.00571429 0.0285714 -0.13
          0.00571429 0.0285714 -0.13 0.0171429 0.0285714 -0.13 0.0285714 0.0285714 -0.13 0.04 0.0285714 -0.13
          -0.04 0.04 -0.13 -0.0285714 0.04 -0.13 -0.0171429 0.04 -0.13 -0.00571429 0.04 -0.13
          0.00571429 0.04 -0.13 0.0171429 0.04 -0.13 0.0285714 0.04 -0.13 0.04 0.04 -0.13
          -0.04 -0.04 -0.12 -0.0285714 -0.04 -0.12 -0.04 -0.0285714 -0.12 -0.0285714 -0.0285714 -0.12
          -0.0171429 -0.04 -0.12 -0.0171429 -0.0285714 -0.12 -0.00571429 -0.04 -0.12 -0.00571429 -0.0285714 -0.12
          0.00571429 -0.04 -0.12 0.00571429 -0.0285714 -0.12 0.0171429 -0.04 -0.12 0.0171429 -0.0285714 -0.12
          0.0285714 -0.04 -0.12 0.0285714 -0.0285714 -0.12 0.04 -0.04 -0.12 0.04 -0.0285714 -0.12
          -0.04 -0.0171429 -0.12 -0.0285714 -0.0171429 -0.12 -0.0171429 -0.0171429 -0.12 -0.00571429 -0.0171429 -0.12
          0.00571429 -0.0171429 -0.12 0.0171429 -0.0171429 -0.12 0.0285714 -0.0171429 -0.12 0.04 -0.0171429 -0.12
          -0.04 -0.00571429 -0.12 -0.0285714 -0.00571429 -0.12 -0.0171429 -0.00571429 -0.12 -0.00571429 -0.00571429 -0.12
          0.00571429 -0.00571429 -0.12 0.0171429 -0.00571429 -0.12 0.0285714 -0.00571429 -0.12 0.04 -0.00571429 -0.12
          -0.04 0.00571429 -0.12 -0.0285714 0.00571429 -0.12 -0.0171429 0.00571429 -0.12 -0.00571429 0.00571429 -0.12
          0.00571429 0.00571429 -0.12 0.0171429 0.00571429 -0.12 0.0285714 0.00571429 -0.12 0.04 0.00571429 -0.12
          -0.04 0.0171429 -0.12 -0.0285714 0.0171429 -0.12 -0.0171429 0.0171429 -0.12 -0.00571429 0.0171429 -0.12
          0.00571429 0.0171429 -0.12 0.0171429 0.0171429 -0.12 0.0285714 0.0171429 -0.12 0.04 0.0171429 -0.12
          -0.04 0.0285714 -0.12 -0.0285714 0.0285714 -0.12 -0.0171429 0.0285714 -0.12 -0.00571429 0.0285714 -0.12
          0.00571429 0.0285714 -0.12 0.0171429 0.0285714 -0.12 0.0285714 0.0285714 -0.12 0.04 0.0285714 -0.12
          -0.04 0.04 -0.12 -0.0285714 0.04 -0.12 -0.0171429 0.04 -0.12 -0.00571429 0.04 -0.12
          0.00571429 0.04 -0.12 0.0171429 0.04 -0.12 0.0285714 0.04 -0.12 0.04 0.04 -0.12
          -0.04 -0.04 -0.11 -0.0285714 -0.04 -0.11 -0.04 -0.0285714 -0.11 -0.0285714 -0.0285714 -0.11
          -0.0171429 -0.04 -0.11 -0.0171429 -0.0285714 -0.11 -0.00571429 -0.04 -0.11 -0.00571429 -0.0285714 -0.11
          0.00571429 -0.04 -0.11 0.00571429 -0.0285714 -0.11 0.0171429 -0.04 -0.11 0.0171429 -0.0285714 -0.11
          0.0285714 -0.04 -0.11 0.0285714 -0.0285714 -0.11 0.04 -0.04 -0.11 0.04 -0.0285714 -0.11
          -0.04 -0.0171429 -0.11 -0.0285714 -0.0171429 -0.11 -0.0171429 -0.0171429 -0.11 -0.00571429 -0.0171429 -0.11
          0.00571429 -0.0171429 -0.11 0.0171429 -0.0171429 -0.11 0.0285714 -0.0171429 -0.11 0.04 -0.0171429 -0.11
          -0.04 -0.00571429 -0.11 -0.0285714 -0.00571429 -0.11 -0.0171429 -0.00571429 -0.11 -0.00571429 -0.00571429 -0.11
          0.00571429 -0.00571429 -0.11 0.0171429 -0.00571429 -0.11 0.0285714 -0.00571429 -0.11 0.04 -0.00571429 -0.11
          -0.04 0.00571429 -0.11 -0.0285714 0.00571429 -0.11 -0.0171429 0.00571429 -0.11 -0.00571429 0.00571429 -0.11
          0.00571429 0.00571429 -0.11 0.0171429 0.00571429 -0.11 0.0285714 0.00571429 -0.11 0.04 0.00571429 -0.11
          -0.04 0.0171429 -0.11 -0.0285714 0.0171429 -0.11 -0.0171429 0.0171429 -0.11 -0.00571429 0.0171429 -0.11
          0.00571429 0.0171429 -0.11 0.0171429 0.0171429 -0.11 0.0285714 0.0171429 -0.11 0.04 0.0171429 -0.11
          -0.04 0.0285714 -0.11 -0.0285714 0.0285714 -0.11 -0.0171429 0.0285714 -0.11 -0.00571429 0.0285714 -0.11
          0.00571429 0.0285714 -0.11 0.0171429 0.0285714 -0.11 0.0285714 0.0285714 -0.11 0.04 0.0285714 -0.11
          -0.04 0.04 -0.11 -0.0285714 0.04 -0.11 -0.0171429 0.04 -0.11 -0.00571429 0.04 -0.11
          0.00571429 0.04 -0.11 0.0171429 0.04 -0.11 0.0285714 0.04 -0.11 0.04 0.04 -0.11
          -0.04 -0.04 -0.1 -0.0285714 -0.04 -0.1 -0.04 -0.0285714 -0.1 -0.0285714 -0.0285714 -0.1
          -0.0171429 -0.04 -0.1 -0.0171429 -0.0285714 -0.1 -0.00571429 -0.04 -0.1 -0.00571429 -0.0285714 -0.1
          0.00571429 -0.04 -0.1 0.00571429 -0.0285714 -0.1 0.0171429 -0.04 -0.1 0.0171429 -0.0285714 -0.1
          0.0285714 -0.04 -0.1 0.0285714 -0.0285714 -0.1 0.04 -0.04 -0.1 0.04 -0.0285714 -0.1
          -0.04 -0.0171429 -0.1 -0.0285714 -0.0171429 -0.1 -0.0171429 -0.0171429 -0.1 -0.00571429 -0.0171429 -0.1
          0.00571429 -0.0171429 -0.1 0.0171429 -0.0171429 -0.1 0.0285714 -0.0171429 -0.1 0.04 -0.0171429 -0.1
          -0.04 -0.00571429 -0.1 -0.0285714 -0.00571429 -0.1 -0.0171429 -0.00571429 -0.1 -0.00571429 -0.00571429 -0.1
          0.00571429 -0.00571429 -0.1 0.0171429 -0.00571429 -0.1 0.0285714 -0.00571429 -0.1 0.04 -0.00571429 -0.1
          -0.04 0.00571429 -0.1 -0.0285714 0.00571429 -0.1 -0.0171429 0.00571429 -0.1 -0.00571429 0.00571429 -0.1
          0.00571429 0.00571429 -0.1 0.0171429 0.00571429 -0.1 0.0285714 0.00571429 -0.1 0.04 0.00571429 -0.1
          -0.04 0.0171429 -0.1 -0.0285714 0.0171429 -0.1 -0.0171429 0.0171429 -0.1 -0.00571429 0.0171429 -0.1
          0.00571429 0.0171429 -0.1 0.0171429 0.0171429 -0.1 0.0285714 0.0171429 -0.1 0.04 0.0171429 -0.1
          -0.04 0.0285714 -0.1 -0.0285714 0.0285714 -0.1 -0.0171429 0.0285714 -0.1 -0.00571429 0.0285714 -0.1
          0.00571429 0.0285714 -0.1 0.0171429 0.0285714 -0.1 0.0285714 0.0285714 -0.1 0.04 0.0285714 -0.1
          -0.04 0.04 -0.1 -0.0285714 0.04 -0.1 -0.0171429 0.04 -0.1 -0.00571429 0.04 -0.1
          0.00571429 0.04 -0.1 0.0171429 0.04 -0.1 0.0285714 0.04 -0.1 0.04 0.04 -0.1
          -0.04 -0.04 -0.09 -0.0285714 -0.04 -0.09 -0.04 -0.0285714 -0.09 -0.0285714 -0.0285714 -0.09
          -0.0171429 -0.04 -0.09 -0.0171429 -0.0285714 -0.09 -0.00571429 -0.04 -0.09 -0.00571429 -0.0285714 -0.09
          0.00571429 -0.04 -0.09 0.00571429 -0.0285714 -0.09 0.0171429 -0.04 -0.09 0.0171429 -0.0285714 -0.09
          0.0285714 -0.04 -0.09 0.0285714 -0.0285714 -0.09 0.04 -0.04 -0.09 0.04 -0.0285714 -0.09
          -0.04 -0.0171429 -0.09 -0.0285714 -0.0171429 -0.09 -0.0171429 -0.0171429 -0.09 -0.00571429 -0.0171429 -0.09
          0.00571429 -0.0171429 -0.09 0.0171429 -0.0171429 -0.09 0.0285714 -0.0171429 -0.09 0.04 -0.0171429 -0.09
          -0.04 -0.00571429 -0.09 -0.0285714 -0.00571429 -0.09 -0.0171429 -0.00571429 -0.09 -0.00571429 -0.00571429 -0.09
          0.00571429 -0.00571429 -0.09 0.0171429 -0.00571429 -0.09 0.0285714 -0.00571429 -0.09 0.04 -0.00571429 -0.09
          -0.04 0.00571429 -0.09 -0.0285714 0.00571429 -0.09 -0.0171429 0.00571429 -0.09 -0.00571429 0.00571429 -0.09
          0.00571429 0.00571429 -0.09 0.0171429 0.00571429 -0.09 0.0285714 0.00571429 -0.09 0.04 0.00571429 -0.09
          -0.04 0.0171429 -0.09 -0.0285714 0.0171429 -0.09 -0.0171429 0.0171429 -0.09 -0.00571429 0.0171429 -0.09
          0.00571429 0.0171429 -0.09 0.0171429 0.0171429 -0.09 0.0285714 0.0171429 -0.09 0.04 0.0171429 -0.09
          -0.04 0.0285714 -0.09 -0.0285714 0.0285714 -0.09 -0.0171429 0.0285714 -0.09 -0.00571429 0.0285714 -0.09
          0.00571429 0.0285714 -0.09 0.0171429 0.0285714 -0.09 0.0285714 0.0285714 -0.09 0.04 0.0285714 -0.09
          -0.04 0.04 -0.09 -0.0285714 0.04 -0.09 -0.0171429 0.04 -0.09 -0.00571429 0.04 -0.09
          0.00571429 0.04 -0.09 0.0171429 0.04 -0.09 0.0285714 0.04 -0.09 0.04 0.04 -0.09
          -0.04 -0.04 -0.08 -0.0285714 -0.04 -0.08 -0.04 -0.0285714 -0.08 -0.0285714 -0.0285714 -0.08
          -0.0171429 -0.04 -0.08 -0.0171429 -0.0285714 -0.08 -0.00571429 -0.04 -0.08 -0.00571429 -0.0285714 -0.08
          0.00571429 -0.04 -0.08 0.00571429 -0.0285714 -0.08 0.0171429 -0.04 -0.08 0.0171429 -0.0285714 -0.08
          0.0285714 -0.04 -0.08 0.0285714 -0.0285714 -0.08 0.04 -0.04 -0.08 0.04 -0.0285714 -0.08
          -0.04 -0.0171429 -0.08 -0.0285714 -0.0171429 -0.08 -0.0171429 -0.0171429 -0.08 -0.00571429 -0.0171429 -0.08
          0.00571429 -0.0171429 -0.08 0.0171429 -0.0171429 -0.08 0.0285714 -0.0171429 -0.08 0.04 -0.0171429 -0.08
          -0.04 -0.00571429 -0.08 -0.0285714 -0.00571429 -0.08 -0.0171429 -0.00571429 -0.08 -0.00571429 -0.00571429 -0.08
          0.00571429 -0.00571429 -0.08 0.0171429 -0.00571429 -0.08 0.0285714 -0.00571429 -0.08 0.04 -0.00571429 -0.08
          -0.04 0.00571429 -0.08 -0.0285714 0.00571429 -0.08 -0.0171429 0.00571429 -0.08 -0.00571429 0.00571429 -0.08
          0.00571429 0.00571429 -0.08 0.0171429 0.00571429 -0.08 0.0285714 0.00571429 -0.08 0.04 0.00571429 -0.08
          -0.04 0.0171429 -0.08 -0.0285714 0.0171429 -0.08 -0.0171429 0.0171429 -0.08 -0.00571429 0.0171429 -0.08