<?xml version="1.0"?>
<VTKFile type="UnstructuredGrid" version="0.1" byte_order="LittleEndian">
  <UnstructuredGrid>
    <Piece NumberOfCells="735" NumberOfPoints="1024">
      <CellData Scalars="p (Pa)">
        <DataArray type="Float32" Name="p (Pa)" NumberOfComponents="1" format="ascii">
          31218.8 30913.2 30424.7 29970.2 29746.4 29745.5 29810 31237.1 30915.4 30396.7 29913 29694
          29721.9 29808.7 31334.8 31006.5 30473.3 29974 29765.2 29819.4 29924.8 31563.2 31264.8 30786.6
          30346.7 30154.2 30186.6 30273.8 31886.8 31639.6 31250.8 30899.5 30736 30742.2 30798 32204.4
          32007.2 31701.5 31427 31289.1 31276.7 31307.1 32400.1 32232.5 31974.3 31742 31618.3 31596.6
          31614 30454.1 30041 29369.2 28746.2 28497.9 28582.7 28725.6 30447.9 29996.1 29243.5 28529.2
          28294.6 28460.7 28660.8 30531.1 30052.4 29235.8 28433 28218 28470.3 28726.7 30792.9 30362.1
          29649.5 28985.2 28777.7 28938.5 29145.6 31187 30839.7 30285.5 29795.3 29627.5 29711 29841
          31584 31319 30908 30553.5 30414 30446.7 30519.6 31830.8 31613.8 31282.4 30997.3 30871.5
          30879.4 30924.2 29021.9 28361.3 27243.8 26181.8 25899.5 26233.7 26583.4 28953.4 28185 26809.9
          25389.3 25175 25809.4 26342.1 28992.3 28126.6 26478.4 24548.1 24422 25480.3 26236.9 29322.6
          28557.3 27199.1 25835.2 25635.8 26213.1 26804.8 29868.5 29270.3 28275.6 27399.1 27273.5 27588.2
          27934.1 30443.3 30015.7 29344.5 28794 28679 28838 29022.8 30804.6 30475.2 29974.6 29571.4
          29455.7 29541.2 29653.8 26958.3 25858.3 23875.6 21838.7 21574.1 22508.4 23293.8 26768.2 25389.1
          22605.9 19064.7 19202.5 21300.1 22658.6 26704.1 25020.4 21123.7 14139.3 15009 19767.6 22067.1
          27138 25680.9 22768.1 19260 19303.5 21044.7 22837.9 27927.5 26800.7 24753.5 22856.5 23110.3
          24017.2 24921.4 28814.6 28070.3 26855.9 25896.5 25941.3 26393.6 26822.4 29377.2 28847 28035.5
          27425.3 27372.1 27620.8 27864.6 24397.6 22648.8 19246.7 15255.3 15229.6 17332.9 18866.4 24021.7
          21658.1 16061.7 5505.72 8176.44 14452.1 17530.7 23780.7 20622.9 10826.4 -34851.1 -21489.9 8968.3
          15801 24335.6 21618.1 15175.4 4519.63 6280.27 10144.9 16507.3 25440.3 23245.9 18463.8 13253.2
          16122.2 18372.3 20706 26819.4 25513.6 23200.2 21396.8 22117.6 23164.4 24061.8 27693.4 26852.7
          25532.6 24606.9 24752.3 25287.5 25742.4 21615.2 19121.3 14052.1 7483.41 7800.18 11102.9 13535.4
          21047.6 17549.2 8457.53 -15425 -4484.69 6305.8 11444.4 20646.3 15774.2 -1424.49 -96592.3 -56038.3
          -5421.52 8138.33 21298.2 16745.2 3722.39 -27379.2 -14591.8 -28508.1 7188.36 22711 18479.8 4622.98
          -19778 5735 10181.4 15816.7 24771.5 22620.3 18232 14876 17713.5 19666.5 21244.5 26046.2
          24823.2 22823.2 21544.1 22079.1 22977.5 23677.7 18941.2 15733.4 9389.91 1775.85 316.852 3953.08
          7461.85 18249.5 13761.8 2949.4 -17084.2 -15680.6 -1652.63 5223.3 17910.2 11787.7 -8966.21 -103407
          -87323.9 -15637.7 1860.42 18787.9 12464.9 -9380.5 -87708 -38127 -32194.2 2645.91 20539.6 13727.8
          -27126.5 -22143.5 84.7758 6718.86 12941.8 23264.3 20395.6 13753.4 11871.1 15095.5 17543.6 19346.2
          24865.9 23386.8 20911.3 19656.8 20314.9 21388.7 22193 16646.2 12550.7 4660.14 -3741.21 -8323.68
          -6367.48 107.859 15830.7 9724.27 -4314.68 -21059.4 -26647.5 -9942.19 -1154.46 16002.2 8971.03 -13793.6
          -94452.6 -120908 -20920.3 -2645.79 17663.7 11558.5 -7999.41 -87453.6 -30389.8 -8524.97 3285.32 20149.1
          15475.2 2300.01 -18312 1096.49 8365.41 12498.9 22887.5 20537.1 15952.3 12564.4 14903.3 17170.5
          18658.6 24470.6 23116.8 20919.7 19469.5 19859.8 20800.4 21511.2 15157.9 9940.1 -439.822 -9547.22
          -21010.5 -33508.5 -9464.19 14073.9 3141.2 -29240.7 -29710.9 -43454.9 -20876.6 -8496.86 15076.4 6574.05
          -30743.1 -102855 -125168 -25268.5 -8543.4 17672.9 12416.8 -1866.58 -33636.4 -21270.7 -4236.85 2940.2
          20645.6 17446.1 10595.3 2627.73 5623.5 10041 12709.6 23242 21496.3 18419.1 15844.4 16285.8
          17674.6 18704.4 24683.1 23576.1 21811.4 20451.8 20373 20948.8 21457.9 15238.7 10716.5 1465.41
          -11427 -36922.7 -43234.6 -15191.6 14772.3 8427.92 -6319.76 -25043 -64999.5 -30687.3 -15884.7 15733.4
          9240.06 -10183.4 -54578.7 -93580.1 -32130.1 -24921.5 18453.6 14332.7 4838.95 -8961.81 -13207.3 -3537.02
          1301.1 21469.1 19103.2 14568.8 9724.02 8903.86 11195.5 12973.2 23881.1 22539.2 20260.4 18191.6
          17723.4 18393.5 19061.9 25179.7 24277.5 22834.4 21587.3 21183.3 21424.3 21743.9 15933.1 11926.8
          3351.54 -9842.25 -28212.4 -26130.6 -13889.8 15777 10641.8 -2276.15 -24189.5 -85936.9 -40241.9 -17914.9
          16621.4 10282.1 -17408.6 -51806.7 -126364 -71456.4 -23908.9 19325.3 15654.1 6879.37 -4536.86 -13404.3
          -5347.44 1696.18 22254.3 20263.4 16474.8 12337.8 10402.8 11911.7 13572.2 24512 23381.4 21453
          19570.8 18742 19059.5 19562.7 25706.2 24928.6 23664.6 22480 21909.7 21952.2 22156.7 16691.7
          13003 4910.53 -8203.61 -23265.2 -24076.7 -11009.8 16716.6 12243.6 833.119 -24295.8 -73869.5 -60030.5
          -15300.9 17629.7 12507.8 -4793.73 -88708.7 -112113 -31250.9 -9660.53 20111 16865.3 9130.76 -4840.35
          -10895.2 -933.23 4833.38 22864.5 21058.4 17569.2 13357.3 11491.3 13085.9 14631.3 24997.2 23961.4
          22167.3 20319.4 19424.8 19672.4 20120.8 26124 25405.8 24219.8 23058 22434.4 22407.7 22567.3
          17240.5 13692.3 5822.27 -6897.07 -17894.3 -12795.1 -5657.85 17351.8 13200.6 2695.92 -20579.6 -56125.2
          -22994.7 -7463.99 18329.1 14033.2 2366.84 -27083.2 -96472.6 -19375.4 -3283.89 20600.6 17586.9 10711.3
          -574.275 -8545.41 1822.3 7184.89 23215.1 21453.1 18030.5 13883.9 12063.3 13927.2 15522.8 25280.6
          24259.6 22470.9 20607.6 19758.8 20085.4 20564 26378.3 25672.1 24494.7 23329.4 22718.1 22710.4
          22877.8 17494 13896.8 5634.98 -8751.6 -16146.4 -7874.07 -2007.36 17578.6 13240.2 799.084 -47941.6
          -67751.9 -15885.9 -3278.87 18509.4 14055 1349.64 -34121.7 -111204 -16939.9 -476.154 20678.1 17380.9
          9144.08 -6997.98 -11139.2 2498.21 8379.56 23282.6 21368.4 17437.5 12312.2 11479.6 14153 16002.4
          25364.3 24286.3 22350.3 20306.7 19677.3 20225.5 20800.3 26471.2 25743.5 24518.4 23311.8 22763.2
          22832.6 23040.5 17548.1 13966.8 5999.29 -6052.59 -11081.8 -4951.99 -104.851 17578.2 13164.9 1302.26
          -25721.5 -32216.4 -10487.5 -1114.08 18363.8 13195.3 -5360.51 -105525 -102754 -14660.1 837.809 20494.7
          16524.9 3720.9 -55858 -15710.4 2451.35 8825.45 23174.8 21002.3 16019.7 7665.72 10214.9 14016.3
          16135.7 25314.5 24155.7 21991.7 19583.1 19364.5 20173.8 20844.9 26445.4 25688.7 24400.4 23130.7
          22663.8 22814 23061.1
        </DataArray>
        <DataArray type="Float32" Name="saturation" NumberOfComponents="1" format="ascii">
          0.295972 0.295682 0.295221 0.294798 0.294591 0.29459 0.294649 0.29599 0.295684 0.295195 0.294745 0.294542
          0.294568 0.294648 0.296083 0.29577 0.295267 0.294801 0.294608 0.294658 0.294756 0.296302 0.296016 0.295562
          0.295148 0.294969 0.294999 0.29508 0.296615 0.296376 0.296003 0.295669 0.295514 0.29552 0.295573 0.296924
          0.296732 0.296435 0.296171 0.296039 0.296027 0.296057 0.297115 0.296951 0.2967 0.296475 0.296355 0.296334
          0.296351 0.295249 0.294863 0.294244 0.293678 0.293455 0.293531 0.293659 0.295243 0.294822 0.294129 0.293483
          0.293273 0.293421 0.293601 0.295321 0.294874 0.294122 0.293396 0.293204 0.29343 0.29366 0.295568 0.295163
          0.294501 0.293894 0.293706 0.293852 0.29404 0.295942 0.295612 0.295091 0.294636 0.294481 0.294558 0.294678
          0.296322 0.296068 0.295677 0.295342 0.295211 0.295242 0.29531 0.29656 0.296351 0.296033 0.295761 0.295642
          0.29565 0.295692 0.293928 0.293332 0.292345 0.291429 0.291189 0.291473 0.291773 0.293865 0.293175 0.291968
          0.290758 0.290579 0.291112 0.291566 0.293901 0.293123 0.291682 0.290059 0.289956 0.290835 0.291476 0.294201
          0.293508 0.292306 0.291134 0.290966 0.291455 0.291964 0.294703 0.294154 0.293256 0.292481 0.292371 0.292647
          0.292952 0.295239 0.29484 0.294221 0.293721 0.293617 0.293761 0.293928 0.295579 0.295269 0.294802 0.294429
          0.294323 0.294402 0.294505 0.292096 0.291154 0.289509 0.287889 0.287684 0.288415 0.28904 0.291932 0.290758
          0.288492 0.285788 0.28589 0.287472 0.288533 0.291877 0.29045 0.287337 0.282327 0.282915 0.28631 0.288068
          0.292253 0.291004 0.28862 0.285933 0.285965 0.287276 0.288676 0.292946 0.29196 0.290229 0.28869 0.288893
          0.289624 0.290368 0.29374 0.293073 0.292008 0.291186 0.291224 0.29161 0.291979 0.294251 0.293769 0.293042
          0.292504 0.292457 0.292675 0.29289 0.289936 0.288526 0.285923 0.283083 0.283066 0.284534 0.285643 0.289628
          0.287749 0.283639 0.276964 0.278537 0.282537 0.284675 0.289432 0.286954 0.280172 0.259529 0.264268 0.279018
          0.283459 0.289885 0.287718 0.283028 0.276402 0.277413 0.279744 0.283951 0.290801 0.289001 0.285348 0.281738
          0.283682 0.285282 0.287017 0.291976 0.290863 0.288965 0.287547 0.288107 0.288936 0.289661 0.292739 0.292005
          0.290879 0.290108 0.290228 0.290673 0.291056 0.287716 0.28583 0.282269 0.278122 0.278311 0.280347 0.281924
          0.287278 0.284688 0.278707 0.266704 0.271658 0.277428 0.280564 0.286972 0.28344 0.273195 0.244671 0.253377
          0.271202 0.278514 0.287471 0.284118 0.275953 0.262081 0.267054 0.261681 0.277947 0.288575 0.28536 0.27646
          0.264935 0.277097 0.279767 0.28347 0.290244 0.288503 0.28518 0.282824 0.284806 0.286234 0.287429 0.291313
          0.290287 0.288664 0.287661 0.288077 0.288787 0.289349 0.285698 0.283412 0.279276 0.274883 0.274102 0.276082
          0.278109 0.285193 0.282075 0.275524 0.266017 0.266597 0.273077 0.276802 0.284947 0.280784 0.269533 0.243486
          0.246393 0.266615 0.274929 0.285585 0.281221 0.269343 0.246319 0.25848 0.26041 0.275357 0.286891 0.282052
          0.262172 0.264017 0.27398 0.27767 0.281533 0.289016 0.286782 0.282069 0.280837 0.282974 0.284684 0.285996
          0.290322 0.289114 0.287174 0.286227 0.286721 0.287541 0.288166 0.284048 0.281277 0.276481 0.272025 0.269829
          0.270748 0.273992 0.283479 0.279483 0.271741 0.264434 0.262344 0.269088 0.273334 0.283598 0.279019 0.267394
          0.245057 0.240712 0.264488 0.272573 0.28477 0.280637 0.269979 0.246368 0.261025 0.269736 0.27571 0.286596
          0.283234 0.275168 0.265519 0.274517 0.278651 0.281244 0.288715 0.286889 0.283564 0.281286 0.282843 0.284418
          0.28549 0.289996 0.288898 0.28718 0.286088 0.286379 0.287089 0.287635 0.283017 0.279616 0.273705 0.269267
          0.264453 0.259971 0.269305 0.282283 0.27563 0.261424 0.26126 0.256856 0.264505 0.269749 0.282961 0.277585
          0.260904 0.243579 0.24009 0.262846 0.269727 0.284777 0.28119 0.272968 0.259929 0.264352 0.27178 0.275519
          0.286972 0.284615 0.280026 0.275347 0.277032 0.279679 0.281381 0.288998 0.287624 0.285316 0.283489 0.283796
          0.284778 0.285524 0.290171 0.289267 0.287868 0.286824 0.286765 0.287203 0.287594 0.283072 0.280102 0.274715
          0.268424 0.258861 0.256922 0.266801 0.282754 0.278689 0.27077 0.262929 0.251162 0.260923 0.266512 0.283412
          0.279184 0.268979 0.253758 0.245216 0.260432 0.262974 0.285341 0.282457 0.276583 0.269535 0.267646 0.272126
          0.274627 0.287603 0.285817 0.282616 0.279482 0.278978 0.280405 0.281553 0.289514 0.288439 0.28668 0.285151
          0.284813 0.285297 0.285786 0.290583 0.289837 0.288673 0.287694 0.287382 0.287568 0.287816 0.28355 0.280873
          0.275747 0.269133 0.261785 0.262531 0.267353 0.283442 0.280055 0.27276 0.263245 0.246662 0.257824 0.265679
          0.284031 0.27983 0.265885 0.254496 0.239919 0.249681 0.26335 0.285981 0.283357 0.277764 0.271632 0.267561
          0.271238 0.27484 0.288214 0.286682 0.283928 0.281139 0.279905 0.280863 0.281949 0.29003 0.28911 0.28759
          0.286163 0.285551 0.285785 0.286157 0.291025 0.290374 0.289338 0.288392 0.287945 0.287978 0.288138 0.28408
          0.281573 0.276624 0.269884 0.263591 0.263287 0.268609 0.284098 0.281078 0.274376 0.263206 0.24915 0.252366
          0.266756 0.284746 0.281249 0.271507 0.246127 0.24206 0.26073 0.269216 0.286567 0.284202 0.279117 0.271484
          0.26866 0.273448 0.27658 0.288697 0.287287 0.284703 0.281806 0.280594 0.281627 0.282658 0.290431 0.289579
          0.288146 0.286724 0.286055 0.286239 0.286575 0.291379 0.290772 0.28979 0.288851 0.288356 0.288335 0.288461
          0.284468 0.282029 0.277147 0.270496 0.265688 0.267824 0.271088 0.284547 0.281703 0.275384 0.264621 0.253355
          0.263693 0.270229 0.28525 0.282256 0.275204 0.262187 0.244692 0.265095 0.272252 0.286937 0.284715 0.280099
          0.273635 0.269726 0.274908 0.277945 0.288976 0.28759 0.285034 0.282156 0.280961 0.282185 0.283267 0.290667
          0.289822 0.288385 0.286943 0.286303 0.286548 0.286909 0.291597 0.290996 0.290015 0.289068 0.28858 0.288574
          0.288707 0.284649 0.282165 0.277039 0.269631 0.266403 0.270038 0.272896 0.284709 0.281729 0.274358 0.255562
          0.250519 0.266511 0.272255 0.285382 0.28227 0.274653 0.259768 0.242205 0.266076 0.273686 0.286996 0.284568
          0.279125 0.270449 0.268552 0.275276 0.27866 0.289031 0.287525 0.284609 0.281122 0.280586 0.282336 0.283598
          0.290737 0.289844 0.28829 0.286715 0.286242 0.286653 0.287089 0.291676 0.291056 0.290035 0.289054 0.288616
          0.288671 0.288837 0.284688 0.282212 0.27725 0.270898 0.268577 0.27143 0.27388 0.284709 0.281679 0.274627
          0.26268 0.260403 0.268843 0.273355 0.285276 0.2817 0.271231 0.24313 0.243596 0.267025 0.274379 0.286857
          0.283963 0.275952 0.253424 0.266584 0.27525 0.278931 0.288944 0.287244 0.28361 0.278231 0.279788 0.282245
          0.283691 0.290696 0.289737 0.288009 0.286172 0.28601 0.286614 0.287123 0.291654 0.29101 0.289938 0.288909
          0.288537 0.288657 0.288853
        </DataArray>
        <DataArray type="Float32" Name="process rank" NumberOfComponents="1" format="ascii">
          0 0 0 0 0 0 0 0 0 0 0 0
          0 0 0 0 0 0 0 0 0 0 0 0
          0 0 0 0 0 0 0 0 0 0 0 0
          0 0 0 0 0 0 0 0 0 0 0 0
          0 0 0 0 0 0 0 0 0 0 0 0
          0 0 0 0 0 0 0 0 0 0 0 0
          0 0 0 0 0 0 0 0 0 0 0 0
          0 0 0 0 0 0 0 0 0 0 0 0
          0 0 0 0 0 0 0 0 0 0 0 0
          0 0 0 0 0 0 0 0 0 0 0 0
          0 0 0 0 0 0 0 0 0 0 0 0
          0 0 0 0 0 0 0 0 0 0 0 0
          0 0 0 0 0 0 0 0 0 0 0 0
          0 0 0 0 0 0 0 0 0 0 0 0
          0 0 0 0 0 0 0 0 0 0 0 0
          0 0 0 0 0 0 0 0 0 0 0 0
          0 0 0 0 0 0 0 0 0 0 0 0
          0 0 0 0 0 0 0 0 0 0 0 0
          0 0 0 0 0 0 0 0 0 0 0 0
          0 0 0 0 0 0 0 0 0 0 0 0
          0 0 0 0 0 0 0 0 0 0 0 0
          0 0 0 0 0 0 0 0 0 0 0 0
          0 0 0 0 0 0 0 0 0 0 0 0
          0 0 0 0 0 0 0 0 0 0 0 0
          0 0 0 0 0 0 0 0 0 0 0 0
          0 0 0 0 0 0 0 0 0 0 0 0
          0 0 0 0 0 0 0 0 0 0 0 0
          0 0 0 0 0 0 0 0 0 0 0 0
          0 0 0 0 0 0 0 0 0 0 0 0
          0 0 0 0 0 0 0 0 0 0 0 0
          0 0 0 0 0 0 0 0 0 0 0 0
          0 0 0 0 0 0 0 0 0 0 0 0
          0 0 0 0 0 0 0 0 0 0 0 0
          0 0 0 0 0 0 0 0 0 0 0 0
          0 0 0 0 0 0 0 0 0 0 0 0
          0 0 0 0 0 0 0 0 0 0 0 0
          0 0 0 0 0 0 0 0 0 0 0 0
          0 0 0 0 0 0 0 0 0 0 0 0
          0 0 0 0 0 0 0 0 0 0 0 0
          0 0 0 0 0 0 0 0 0 0 0 0
          0 0 0 0 0 0 0 0 0 0 0 0
          0 0 0 0 0 0 0 0 0 0 0 0
          0 0 0 0 0 0 0 0 0 0 0 0
          0 0 0 0 0 0 0 0 0 0 0 0
          0 0 0 0 0 0 0 0 0 0 0 0
          0 0 0 0 0 0 0 0 0 0 0 0
          0 0 0 0 0 0 0 0 0 0 0 0
          0 0 0 0 0 0 0 0 0 0 0 0
          0 0 0 0 0 0 0 0 0 0 0 0
          0 0 0 0 0 0 0 0 0 0 0 0
          0 0 0 0 0 0 0 0 0 0 0 0
          0 0 0 0 0 0 0 0 0 0 0 0
          0 0 0 0 0 0 0 0 0 0 0 0
          0 0 0 0 0 0 0 0 0 0 0 0
          0 0 0 0 0 0 0 0 0 0 0 0
          0 0 0 0 0 0 0 0 0 0 0 0
          0 0 0 0 0 0 0 0 0 0 0 0
          0 0 0 0 0 0 0 0 0 0 0 0
          0 0 0 0 0 0 0 0 0 0 0 0
          0 0 0 0 0 0 0 0 0 0 0 0
          0 0 0 0 0 0 0 0 0 0 0 0
          0 0 0
        </DataArray>
      </CellData>
      <Points>
        <DataArray type="Float32" Name="Coordinates" NumberOfComponents="3" format="ascii">
          -0.04 -0.04 -0.15 -0.0285714 -0.04 -0.15 -0.04 -0.0285714 -0.15 -0.0285714 -0.0285714 -0.15
          -0.04 -0.04 -0.14 -0.0285714 -0.04 -0.14 -0.04 -0.0285714 -0.14 -0.0285714 -0.0285714 -0.14
          -0.0171429 -0.04 -0.15 -0.0171429 -0.0285714 -0.15 -0.0171429 -0.04 -0.14 -0.0171429 -0.0285714 -0.14
          -0.00571429 -0.04 -0.15 -0.00571429 -0.0285714 -0.15 -0.00571429 -0.04 -0.14 -0.00571429 -0.0285714 -0.14
          0.00571429 -0.04 -0.15 0.00571429 -0.0285714 -0.15 0.00571429 -0.04 -0.14 0.00571429 -0.0285714 -0.14
          0.0171429 -0.04 -0.15 0.0171429 -0.0285714 -0.15 0.0171429 -0.04 -0.14 0.0171429 -0.0285714 -0.14
          0.0285714 -0.04 -0.15 0.0285714 -0.0285714 -0.15 0.0285714 -0.04 -0.14 0.0285714 -0.0285714 -0.14
          0.04 -0.04 -0.15 0.04 -0.0285714 -0.15 0.04 -0.04 -0.14 0.04 -0.0285714 -0.14
          -0.04 -0.0171429 -0.15 -0.0285714 -0.0171429 -0.15 -0.04 -0.0171429 -0.14 -0.0285714 -0.0171429 -0.14
          -0.0171429 -0.0171429 -0.15 -0.0171429 -0.0171429 -0.14 -0.00571429 -0.0171429 -0.15 -0.00571429 -0.0171429 -0.14
          0.00571429 -0.0171429 -0.15 0.00571429 -0.0171429 -0.14 0.0171429 -0.0171429 -0.15 0.0171429 -0.0171429 -0.14
          0.0285714 -0.0171429 -0.15 0.0285714 -0.0171429 -0.14 0.04 -0.0171429 -0.15 0.04 -0.0171429 -0.14
          -0.04 -0.00571429 -0.15 -0.0285714 -0.00571429 -0.15 -0.04 -0.00571429 -0.14 -0.0285714 -0.00571429 -0.14
          -0.0171429 -0.00571429 -0.15 -0.0171429 -0.00571429 -0.14 -0.00571429 -0.00571429 -0.15 -0.00571429 -0.00571429 -0.14
          0.00571429 -0.00571429 -0.15 0.00571429 -0.00571429 -0.14 0.0171429 -0.00571429 -0.15 0.0171429 -0.00571429 -0.14
          0.0285714 -0.00571429 -0.15 0.0285714 -0.00571429 -0.14 0.04 -0.00571429 -0.15 0.04 -0.00571429 -0.14
          -0.04 0.00571429 -0.15 -0.0285714 0.00571429 -0.15 -0.04 0.00571429 -0.14 -0.0285714 0.00571429 -0.14
          -0.0171429 0.00571429 -0.15 -0.0171429 0.00571429 -0.14 -0.00571429 0.00571429 -0.15 -0.00571429 0.00571429 -0.14
          0.00571429 0.00571429 -0.15 0.00571429 0.00571429 -0.14 0.0171429 0.00571429 -0.15 0.0171429 0.00571429 -0.14
          0.0285714 0.00571429 -0.15 0.0285714 0.00571429 -0.14 0.04 0.00571429 -0.15 0.04 0.00571429 -0.14
          -0.04 0.0171429 -0.15 -0.0285714 0.0171429 -0.15 -0.04 0.0171429 -0.14 -0.0285714 0.0171429 -0.14
          -0.0171429 0.0171429 -0.15 -0.0171429 0.0171429 -0.14 -0.00571429 0.0171429 -0.15 -0.00571429 0.0171429 -0.14
          0.00571429 0.0171429 -0.15 0.00571429 0.0171429 -0.14 0.0171429 0.0171429 -0.15 0.0171429 0.0171429 -0.14
          0.0285714 0.0171429 -0.15 0.0285714 0.0171429 -0.14 0.04 0.0171429 -0.15 0.04 0.0171429 -0.14
          -0.04 0.0285714 -0.15 -0.0285714 0.0285714 -0.15 -0.04 0.0285714 -0.14 -0.0285714 0.0285714 -0.14
          -0.0171429 0.0285714 -0.15 -0.0171429 0.0285714 -0.14 -0.00571429 0.0285714 -0.15 -0.00571429 0.0285714 -0.14
          0.00571429 0.0285714 -0.15 0.00571429 0.0285714 -0.14 0.0171429 0.0285714 -0.15 0.0171429 0.0285714 -0.14
          0.0285714 0.0285714 -0.15 0.0285714 0.0285714 -0.14 0.04 0.0285714 -0.15 0.04 0.0285714 -0.14
          -0.04 0.04 -0.15 -0.0285714 0.04 -0.15 -0.04 0.04 -0.14 -0.0285714 0.04 -0.14
          -0.0171429 0.04 -0.15 -0.0171429 0.04 -0.14 -0.00571429 0.04 -0.15 -0.00571429 0.04 -0.14
          0.00571429 0.04 -0.15 0.00571429 0.04 -0.14 0.0171429 0.04 -0.15 0.0171429 0.04 -0.14
          0.0285714 0.04 -0.15 0.0285714 0.04 -0.14 0.04 0.04 -0.15 0.04 0.04 -0.14
          -0.04 -0.04 -0.13 -0.0285714 -0.04 -0.13 -0.04 -0.0285714 -0.13 -0.0285714 -0.0285714 -0.13
          -0.0171429 -0.04 -0.13 -0.0171429 -0.0285714 -0.13 -0.00571429 -0.04 -0.13 -0.00571429 -0.0285714 -0.13
          0.00571429 -0.04 -0.13 0.00571429 -0.0285714 -0.13 0.0171429 -0.04 -0.13 0.0171429 -0.0285714 -0.13
          0.0285714 -0.04 -0.13 0.0285714 -0.0285714 -0.13 0.04 -0.04 -0.13 0.04 -0.0285714 -0.13
          -0.04 -0.0171429 -0.13 -0.0285714 -0.0171429 -0.13 -0.0171429 -0.0171429 -0.13 -0.00571429 -0.0171429 -0.13
          0.00571429 -0.0171429 -0.13 0.0171429 -0.0171429 -0.13 0.0285714 -0.0171429 -0.13 0.04 -0.0171429 -0.13
          -0.04 -0.00571429 -0.13 -0.0285714 -0.00571429 -0.13 -0.0171429 -0.00571429 -0.13 -0.00571429 -0.00571429 -0.13
          0.00571429 -0.00571429 -0.13 0.0171429 -0.00571429 -0.13 0.0285714 -0.00571429 -0.13 0.04 -0.00571429 -0.13
          -0.04 0.00571429 -0.13 -0.0285714 0.00571429 -0.13 -0.0171429 0.00571429 -0.13 -0.00571429 0.00571429 -0.13
          0.00571429 0.00571429 -0.13 0.0171429 0.00571429 -0.13 0.0285714 0.00571429 -0.13 0.04 0.00571429 -0.13
          -0.04 0.0171429 -0.13 -0.0285714 0.0171429 -0.13 -0.0171429 0.0171429 -0.13 -0.00571429 0.0171429 -0.13
          0.00571429 0.0171429 -0.13 0.0171429 0.0171429 -0.13 0.0285714 0.0171429 -0.13 0.04 0.0171429 -0.13
          -0.04 0.0285714 -0.13 -0.0285714 0.0285714 -0.13 -0.0171429 0.0285714 -0.13 -0.00571429 0.0285714 -0.13
          0.00571429 0.0285714 -0.13 0.0171429 0.0285714 -0.13 0.0285714 0.0285714 -0.13 0.04 0.0285714 -0.13
          -0.04 0.04 -0.13 -0.0285714 0.04 -0.13 -0.0171429 0.04 -0.13 -0.00571429 0.04 -0.13
          0.00571429 0.04 -0.13 0.0171429 0.04 -0.13 0.0285714 0.04 -0.13 0.04 0.04 -0.13
          -0.04 -0.04 -0.12 -0.0285714 -0.04 -0.12 -0.04 -0.0285714 -0.12 -0.0285714 -0.0285714 -0.12
          -0.0171429 -0.04 -0.12 -0.0171429 -0.0285714 -0.12 -0.00571429 -0.04 -0.12 -0.00571429 -0.0285714 -0.12
          0.00571429 -0.04 -0.12 0.00571429 -0.0285714 -0.12 0.0171429 -0.04 -0.12 0.0171429 -0.0285714 -0.12
          0.0285714 -0.04 -0.12 0.0285714 -0.0285714 -0.12 0.04 -0.04 -0.12 0.04 -0.0285714 -0.12
          -0.04 -0.0171429 -0.12 -0.0285714 -0.0171429 -0.12 -0.0171429 -0.0171429 -0.12 -0.00571429 -0.0171429 -0.12
          0.00571429 -0.0171429 -0.12 0.0171429 -0.0171429 -0.12 0.0285714 -0.0171429 -0.12 0.04 -0.0171429 -0.12
          -0.04 -0.00571429 -0.12 -0.0285714 -0.00571429 -0.12 -0.0171429 -0.00571429 -0.12 -0.00571429 -0.00571429 -0.12
          0.00571429 -0.00571429 -0.12 0.0171429 -0.00571429 -0.12 0.0285714 -0.00571429 -0.12 0.04 -0.00571429 -0.12
          -0.04 0.00571429 -0.12 -0.0285714 0.00571429 -0.12 -0.0171429 0.00571429 -0.12 -0.00571429 0.00571429 -0.12
          0.00571429 0.00571429 -0.12 0.0171429 0.00571429 -0.12 0.0285714 0.00571429 -0.12 0.04 0.00571429 -0.12
          -0.04 0.0171429 -0.12 -0.0285714 0.0171429 -0.12 -0.0171429 0.0171429 -0.12 -0.00571429 0.0171429 -0.12
          0.00571429 0.0171429 -0.12 0.0171429 0.0171429 -0.12 0.0285714 0.0171429 -0.12 0.04 0.0171429 -0.12
          -0.04 0.0285714 -0.12 -0.0285714 0.0285714 -0.12 -0.0171429 0.0285714 -0.12 -0.00571429 0.0285714 -0.12
          0.00571429 0.0285714 -0.12 0.0171429 0.0285714 -0.12 0.0285714 0.0285714 -0.12 0.04 0.0285714 -0.12
          -0.04 0.04 -0.12 -0.0285714 0.04 -0.12 -0.0171429 0.04 -0.12 -0.00571429 0.04 -0.12
          0.00571429 0.04 -0.12 0.0171429 0.04 -0.12 0.0285714 0.04 -0.12 0.04 0.04 -0.12
          -0.04 -0.04 -0.11 -0.0285714 -0.04 -0.11 -0.04 -0.0285714 -0.11 -0.0285714 -0.0285714 -0.11
          -0.0171429 -0.04 -0.11 -0.0171429 -0.0285714 -0.11 -0.00571429 -0.04 -0.11 -0.00571429 -0.0285714 -0.11
          0.00571429 -0.04 -0.11 0.00571429 -0.0285714 -0.11 0.0171429 -0.04 -0.11 0.0171429 -0.0285714 -0.11
          0.0285714 -0.04 -0.11 0.0285714 -0.0285714 -0.11 0.04 -0.04 -0.11 0.04 -0.0285714 -0.11
          -0.04 -0.0171429 -0.11 -0.0285714 -0.0171429 -0.11 -0.0171429 -0.0171429 -0.11 -0.00571429 -0.0171429 -0.11
          0.00571429 -0.0171429 -0.11 0.0171429 -0.0171429 -0.11 0.0285714 -0.0171429 -0.11 0.04 -0.0171429 -0.11
          -0.04 -0.00571429 -0.11 -0.0285714 -0.00571429 -0.11 -0.0171429 -0.00571429 -0.11 -0.00571429 -0.00571429 -0.11
          0.00571429 -0.00571429 -0.11 0.0171429 -0.00571429 -0.11 0.0285714 -0.00571429 -0.11 0.04 -0.00571429 -0.11
          -0.04 0.00571429 -0.11 -0.0285714 0.00571429 -0.11 -0.0171429 0.00571429 -0.11 -0.00571429 0.00571429 -0.11
          0.00571429 0.00571429 -0.11 0.0171429 0.00571429 -0.11 0.0285714 0.00571429 -0.11 0.04 0.00571429 -0.11
          -0.04 0.0171429 -0.11 -0.0285714 0.0171429 -0.11 -0.0171429 0.0171429 -0.11 -0.00571429 0.0171429 -0.11
          0.00571429 0.0171429 -0.11 0.0171429 0.0171429 -0.11 0.0285714 0.0171429 -0.11 0.04 0.0171429 -0.11
          -0.04 0.0285714 -0.11 -0.0285714 0.0285714 -0.11 -0.0171429 0.0285714 -0.11 -0.00571429 0.0285714 -0.11
          0.00571429 0.0285714 -0.11 0.0171429 0.0285714 -0.11 0.0285714 0.0285714 -0.11 0.04 0.0285714 -0.11
          -0.04 0.04 -0.11 -0.0285714 0.04 -0.11 -0.0171429 0.04 -0.11 -0.00571429 0.04 -0.11
          0.00571429 0.04 -0.11 0.0171429 0.04 -0.11 0.0285714 0.04 -0.11 0.04 0.04 -0.11
          -0.04 -0.04 -0.1 -0.0285714 -0.04 -0.1 -0.04 -0.0285714 -0.1 -0.0285714 -0.0285714 -0.1
          -0.0171429 -0.04 -0.1 -0.0171429 -0.0285714 -0.1 -0.00571429 -0.04 -0.1 -0.00571429 -0.0285714 -0.1
          0.00571429 -0.04 -0.1 0.00571429 -0.0285714 -0.1 0.0171429 -0.04 -0.1 0.0171429 -0.0285714 -0.1
          0.0285714 -0.04 -0.1 0.0285714 -0.0285714 -0.1 0.04 -0.04 -0.1 0.04 -0.0285714 -0.1
          -0.04 -0.0171429 -0.1 -0.0285714 -0.0171429 -0.1 -0.0171429 -0.0171429 -0.1 -0.00571429 -0.0171429 -0.1
          0.00571429 -0.0171429 -0.1 0.0171429 -0.0171429 -0.1 0.0285714 -0.0171429 -0.1 0.04 -0.0171429 -0.1
          -0.04 -0.00571429 -0.1 -0.0285714 -0.00571429 -0.1 -0.0171429 -0.00571429 -0.1 -0.00571429 -0.00571429 -0.1
          0.00571429 -0.00571429 -0.1 0.0171429 -0.00571429 -0.1 0.0285714 -0.00571429 -0.1 0.04 -0.00571429 -0.1
          -0.04 0.00571429 -0.1 -0.0285714 0.00571429 -0.1 -0.0171429 0.00571429 -0.1 -0.00571429 0.00571429 -0.1
          0.00571429 0.00571429 -0.1 0.0171429 0.00571429 -0.1 0.0285714 0.00571429 -0.1 0.04 0.00571429 -0.1
          -0.04 0.0171429 -0.1 -0.0285714 0.0171429 -0.1 -0.0171429 0.0171429 -0.1 -0.00571429 0.0171429 -0.1
          0.00571429 0.0171429 -0.1 0.0171429 0.0171429 -0.1 0.0285714 0.0171429 -0.1 0.04 0.0171429 -0.1
          -0.04 0.0285714 -0.1 -0.0285714 0.0285714 -0.1 -0.0171429 0.0285714 -0.1 -0.00571429 0.0285714 -0.1
          0.00571429 0.0285714 -0.1 0.0171429 0.0285714 -0.1 0.0285714 0.0285714 -0.1 0.04 0.0285714 -0.1
          -0.04 0.04 -0.1 -0.0285714 0.04 -0.1 -0.0171429 0.04 -0.1 -0.00571429 0.04 -0.1
          0.00571429 0.04 -0.1 0.0171429 0.04 -0.1 0.0285714 0.04 -0.1 0.04 0.04 -0.1
          -0.04 -0.04 -0.09 -0.0285714 -0.04 -0.09 -0.04 -0.0285714 -0.09 -0.0285714 -0.0285714 -0.09
          -0.0171429 -0.04 -0.09 -0.0171429 -0.0285714 -0.09 -0.00571429 -0.04 -0.09 -0.00571429 -0.0285714 -0.09
          0.00571429 -0.04 -0.09 0.00571429 -0.0285714 -0.09 0.0171429 -0.04 -0.09 0.0171429 -0.0285714 -0.09
          0.0285714 -0.04 -0.09 0.0285714 -0.0285714 -0.09 0.04 -0.04 -0.09 0.04 -0.0285714 -0.09
          -0.04 -0.0171429 -0.09 -0.0285714 -0.0171429 -0.09 -0.0171429 -0.0171429 -0.09 -0.00571429 -0.0171429 -0.09
          0.00571429 -0.0171429 -0.09 0.0171429 -0.0171429 -0.09 0.0285714 -0.0171429 -0.09 0.04 -0.0171429 -0.09
          -0.04 -0.00571429 -0.09 -0.0285714 -0.00571429 -0.09 -0.0171429 -0.00571429 -0.09 -0.00571429 -0.00571429 -0.09
          0.00571429 -0.00571429 -0.09 0.0171429 -0.00571429 -0.09 0.0285714 -0.00571429 -0.09 0.04 -0.00571429 -0.09
          -0.04 0.00571429 -0.09 -0.0285714 0.00571429 -0.09 -0.0171429 0.00571429 -0.09 -0.00571429 0.00571429 -0.09
          0.00571429 0.00571429 -0.09 0.0171429 0.00571429 -0.09 0.0285714 0.00571429 -0.09 0.04 0.00571429 -0.09
          -0.04 0.0171429 -0.09 -0.0285714 0.0171429 -0.09 -0.0171429 0.0171429 -0.09 -0.00571429 0.0171429 -0.09
          0.00571429 0.0171429 -0.09 0.0171429 0.0171429 -0.09 0.0285714 0.0171429 -0.09 0.04 0.0171429 -0.09
          -0.04 0.0285714 -0.09 -0.0285714 0.0285714 -0.09 -0.0171429 0.0285714 -0.09 -0.00571429 0.0285714 -0.09
          0.00571429 0.0285714 -0.09 0.0171429 0.0285714 -0.09 0.0285714 0.0285714 -0.09 0.04 0.0285714 -0.09
          -0.04 0.04 -0.09 -0.0285714 0.04 -0.09 -0.0171429 0.04 -0.09 -0.00571429 0.04 -0.09
          0.00571429 0.04 -0.09 0.0171429 0.04 -0.09 0.0285714 0.04 -0.09 0.04 0.04 -0.09
          -0.04 -0.04 -0.08 -0.0285714 -0.04 -0.08 -0.04 -0.0285714 -0.08 -0.0285714 -0.0285714 -0.08
          -0.0171429 -0.04 -0.08 -0.0171429 -0.0285714 -0.08 -0.00571429 -0.04 -0.08 -0.00571429 -0.0285714 -0.08
          0.00571429 -0.04 -0.08 0.00571429 -0.0285714 -0.08 0.0171429 -0.04 -0.08 0.0171429 -0.0285714 -0.08
          0.0285714 -0.04 -0.08 0.0285714 -0.0285714 -0.08 0.04 -0.04 -0.08 0.04 -0.0285714 -0.08
          -0.04 -0.0171429 -0.08 -0.0285714 -0.0171429 -0.08 -0.0171429 -0.0171429 -0.08 -0.00571429 -0.0171429 -0.08
          0.00571429 -0.0171429 -0.08 0.0171429 -0.0171429 -0.08 0.0285714 -0.0171429 -0.08 0.04 -0.0171429 -0.08
          -0.04 -0.00571429 -0.08 -0.0285714 -0.00571429 -0.08 -0.0171429 -0.00571429 -0.08 -0.00571429 -0.00571429 -0.08
          0.00571429 -0.00571429 -0.08 0.0171429 -0.00571429 -0.08 0.0285714 -0.00571429 -0.08 0.04 -0.00571429 -0.08
          -0.04 0.00571429 -0.08 -0.0285714 0.00571429 -0.08 -0.0171429 0.00571429 -0.08 -0.00571429 0.00571429 -0.08
          0.00571429 0.00571429 -0.08 0.0171429 0.00571429 -0.08 0.0285714 0.00571429 -0.08 0.04 0.00571429 -0.08
          -0.04 0.0171429 -0.08 -0.0285714 0.0171429 -0.08 -0.0171429 0.0171429 -0.08 -0.00571429 0.0171429 -0.08