<?xml version="1.0"?>
<VTKFile type="UnstructuredGrid" version="0.1" byte_order="LittleEndian">
  <UnstructuredGrid>
    <Piece NumberOfCells="1183" NumberOfPoints="1568">
      <CellData Scalars="p (Pa)">
        <DataArray type="Float32" Name="p (Pa)" NumberOfComponents="1" format="ascii">
          -44232.1 -53579.4 -59608.8 -60855.8 -46251.4 -35792.8 -30877.7 -56106.6 -68163.4 -72101.7 -67631.7 -49898.4
          -37893.2 -32351.1 -87291.5 -115113 -113676 -90082.1 -59067.6 -42039.4 -34836.3 -154567 -278178 -275480
          -172778 -77022.6 -46963.8 -36797.3 -292906 -932795 -976291 -200331 -79135.8 -46089.8 -35024.1 -1.03801e+06
          -954703 -289843 -156890 -66958.5 -38179.9 -28255.3 -937171 -248362 -105458 -67096.2 -38768.1 -24005.1
          -17701.3 -917528 -120745 -47488.3 -29238.2 -17583.9 -10311.3 -6827.42 -96762.3 -36192.2 -17363.9 -9003.3
          -3445.99 261.246 2133.72 -17995.1 -7872.66 -1374.3 2738.24 5673.34 7687.33 8726.67 2279.92 4921.44
          7577.91 9736.96 11418.8 12604.5 13223.3 10409 11224.6 12479.7 13734.9 14805 15584.5 15996.1
          13581.9 13894.3 14665.7 15562.8 16379.5 16990.1 17315.5 -56806.8 -73530.9 -100235 -155985 -83338.7
          -56192.8 -46586.9 -70085.8 -88773.3 -116103 -153897 -84948.7 -57749.3 -47800.3 -105919 -136419 -201948
          -186867 -93359.2 -60924.1 -49476.2 -190999 -304840 -947649 -932961 -142391 -65146.6 -49304 -387443
          -933359 -944830 -213765 -87324.6 -53807.2 -42174.4 -944245 -934398 -210164 -93915.7 -54860.4 -37447.3
          -30062.6 -847766 -179144 -76736 -46393.1 -30478.8 -21423.8 -17158.9 -135527 -60730.2 -33525.3 -21047.8
          -13334.4 -8476.33 -6070.75 -34500.6 -21008.3 -11590.6 -5673.38 -1597.16 1109.02 2483.66 -6376.06 -2777.97
          1012.12 4019.49 6298.41 7871.81 8684.3 5667.66 6787.75 8476.89 10102 11451.3 12419.6 12927.2
          11542.3 11874.6 12714.7 13682.8 14559.4 15213.3 15561.7 14031.8 14115 14643.7 15346.2 16022.9
          16542.1 16821.8 -69641.2 -99001.6 -196870 -937902 -176719 -84664.5 -65658.1 -86041.5 -115812 -205330
          -871382 -165518 -85512.4 -67073.6 -135548 -160050 -213800 -234648 -127187 -85336.5 -68601.1 -302206
          -306077 -314179 -236642 -126689 -87536.1 -67261.2 -954412 -936783 -276018 -136890 -92653.8 -69564.8
          -54212.9 -279419 -455144 -126708 -74280.1 -53927.3 -41942.6 -34656.1 -125330 -94579.8 -55110.6 -37626
          -27812.5 -21529.2 -18022.5 -44133.3 -34702.5 -23732.8 -16224.5 -11090.8 -7640.98 -5800.83 -14034.2 -11050.4
          -6714.01 -3009.13 -164.478 1817.06 2860.03 545.105 1540.78 3483 5442.35 7086.24 8272.06 8898.44
          8537.46 8812.42 9734.21 10827.6 11824 12570.2 12969.2 12911.7 12905.8 13373.1 14038.5 14696.2
          15207.8 15485.7 14869.3 14764.3 15054.6 15542.4 16054.3 16463.7 16688.7 -77440.3 -113334 -192378
          -329927 -169843 -105070 -84030.1 -94688 -142019 -298663 -943037 -222596 -114369 -88352.8 -138359
          -187601 -300909 -294546 -173475 -125875 -95520.1 -271023 -315854 -268676 -210844 -177737 -180939
          -103979 -945624 -933549 -229470 -146215 -165318 -147141 -81332.1 -171981 -178899 -99281.8 -74265.6
          -68061.5 -58156.5 -43809.7 -61734.6 -59367.4 -44459.9 -34894.8 -29296.8 -24306.6 -20141.4 -24158.1 -22800.1
          -17983.5 -13565.6 -10173.9 -7525.51 -5852.34 -5814.64 -5359.42 -3327.8 -1063 903.008 2400.88 3250.85
          4531.28 4576.29 5511.65 6735.51 7890.71 8782.24 9273.43 10673.1 10541.2 10974.9 11663.3 12367.6
          12927.3 13236 14191.6 13985 14182.4 14598.8 15063.3 15446.1 15659.9 15805.7 15571.9 15673.9
          15975.3 16335.6 16641.1 16813.7 -80521 -124321 -236841 -285362 -175360 -119977 -97822.6 -100461
          -196383 -997551 -961549 -255872 -141117 -106674 -140550 -258619 -939635 -409702 -247018 -211187
          -127385 -214581 -345003 -407524 -299257 -343029 -937934 -190140 -307052 -935951 -286276 -252950
          -934964 -915882 -148091 -129930 -161439 -105436 -93770.7 -124110 -109245 -55758.6 -51834.8 -51421.4
          -42323.5 -36576 -34351.6 -28847 -21853.8 -18438.5 -18052.5 -15229.2 -12306.4 -9848.39 -7423.88 -5586.27
          -2151.99 -2281.39 -1170.64 340.61 1810.7 3059.54 3828.26 6879.65 6596.93 7048.35 7844.33 8691.49
          9396.4 9803.11 12216 11901.6 12061.1 12488.2 12989.6 13416.3 13660.2 15281.4 14965.7 14991
          15231.8 15551.7 15835 15998.7 16693.3 16380.5 16352.1 16514.5 16756.2 16977.9 17107.7 -76609.3
          -109330 -161482 -195742 -175351 -124687 -100989 -95653.5 -145958 -286210 -332151 -274176 -150229
          -109483 -145165 -249298 -1.02508e+06 -469276 -316508 -175480 -117399 -244627 -394505 -940401 -473629
          -342814 -218062 -117077 -407755 -935829 -954340 -943594 -932439 -185244 -86305.9 -211181 -175096
          -155064 -143594 -123491 -64667.3 -43691.9 -63901.3 -52694.5 -45080.7 -39238.7 -32668.8 -23663.7 -18491.2
          -18184.9 -16443.1 -13873.9 -11189 -8431.26 -5718.38 -4044.7 -457.674 -533.623 322.954 1575.51 2914.83
          4096.79 4801.63 8363.71 7993.06 8246.09 8840.62 9538.47 10147.3 10502.9 13357.3 12966.3 12986.6
          13267.4 13649.2 13994 14196.1 16181.1 15809.6 15734.7 15865.8 16091.1 16307.2 16436.4 17475.1
          17117.5 17007.3 17077.5 17237.3 17399.7 17498.7 -69771 -94409.8 -126579 -163010 -204694 -119791
          -92027.8 -88421.5 -119982 -176957 -305971 -946594 -180638 -100102 -147483 -190345 -342466 -1.05782e+06
          -968303 -181447 -97481.8 -335004 -360141 -543856 -500825 -249095 -117107 -79588.2 -940189 -934481
          -937599 -940148 -186091 -81036.7 -55998.7 -908636 -199590 -149333 -124795 -65193.9 -40997.3 -31481
          -97018.8 -54339.5 -42030.2 -33977.9 -24085.2 -17167.9 -13668.9 -18521.4 -15006.7 -11883.5 -8890.57 -5759.47
          -3226.59 -1820.23 890.234 885.777 1724.28 2947.72 4281.34 5403.91 6043.95 9512.64 9101.18 9277.04
          9794.09 10431.4 10990 11313.3 14257.8 13829.4 13782.5 13991.4 14312 14612 14789.7 16919.4
          16519.4 16390.6 16460.8 16631.8 16808.3 16916.5 18135.8 17754.5 17597.6 17613.3 17723.4 17849.1
          17928.7 -61827.6 -81929.6 -102205 -117857 -112858 -85557.4 -71817.5 -78710.5 -105103 -140351 -204603
          -181596 -97624.4 -73611.9 -138718 -178891 -299079 -938002 -222813 -96981.3 -69261.4 -449707 -415283
          -952926 -945570 -164841 -76006.7 -56195.5 -936548 -932837 -280354 -189536 -83404.1 -50415 -39167.4
          -174778 -151980 -88629.3 -63515.2 -40427.9 -27991.6 -22559.4 -46877.9 -42569.6 -32256 -24194.6 -16843.6
          -11805.9 -9292.72 -11661.5 -11391.2 -8873.86 -5897.29 -2986.05 -763.062 424.267 2929.23 2492.15 3172.79
          4370.87 5671.85 6732.45 7320.85 10567.2 10068.1 10186.3 10675.3 11291 11825.7 12131.6 14988.4
          14531.7 14452 14632.8 14930 15211.2 15377.8 17510.2 17095.4 16941.6 16984.7 17131.6 17289.7
          17387.9 18669.4 18276.8 18097.6 18087.1 18173.1 18280.5 18350.3 -54249.3 -71868.5 -82591.5 -83118.1
          -73790.8 -61285 -54291.5 -67594.9 -95193.7 -108661 -105995 -84788.5 -63469.3 -53824.8 -105797 -197606
          -219811 -181814 -93998.7 -61447.7 -49849.5 -210455 -949785 -937799 -201152 -81917.6 -51025.5 -40829.9
          -210393 -932310 -210814 -92640.3 -52370.6 -35383.6 -28683.9 -80704.7 -131187 -70538.3 -43964 -28701
          -20210.7 -16395.3 -30491.2 -35482 -26613.1 -18421.3 -12091.7 -7931.6 -5890.56 -7654.89 -8853.28 -6684.86
          -3639.28 -816.974 1247.3 2321.33 4339.62 3636 4256.31 5503.59 6829.14 7876.91 8445.53 11301.7
          10748.9 10862.3 11377.2 12014.5 12556.2 12861.2 15504.4 15035.3 14955.4 15145.1 15450.7 15735.4
          15902.4 17940.9 17521.8 17365.2 17407.7 17554.1 17711 17808.1 19067.4 18672 18488.3 18473
          18554.6 18658.4 18726 -48902.3 -65383.1 -69225.1 -63676.2 -54620.3 -46542.1 -42154.3 -61600.4 -91511.1
          -87659.3 -73153.7 -57852.2 -46647.4 -41172.8 -92928.6 -188101 -136219 -90687.9 -60188.6 -44490.1 -37856.6
          -130771 -321828 -214182 -95487.7 -54586.9 -37796.6 -31246 -160745 -931236 -166939 -69033.5 -39757.3
          -27177.7 -22108.7 -72077.1 -126925 -63976.3 -36875.6 -22956.8 -15576.2 -12325.5 -28731.4 -34422 -24737.9
          -15765.9 -9369.44 -5387.31 -3490.53 -7241.95 -8504.79 -5922.1 -2445.81 572.761 2675.39 3738.23 4559.81
          3877.33 4697.88 6161.89 7624.19 8732.06 9318.38 11531 10997.3 11201.9 11820.6 12534.2 13118
          13439.7 15753.2 15294.9 15255.2 15492.7 15836.8 16145.3 16322.9 18197.5 17784.1 17645.2 17709.5
          17874.6 18043.8 18146.7 19325.4 18933.6 18759.1 18755.6 18847.6 18958.5 19029.5 -45608.9 -63262.4
          -61194.9 -52827.9 -44206.9 -37745.4 -34395.7 -63100.4 -127405 -82278.5 -59859.4 -46005.2 -37475.4 -33413.8
          -130536 -898177 -157889 -73199 -47577.5 -35707.3 -30690.8 -174557 -941469 -203434 -79638.6 -44801.8
          -30920.8 -25522.5 -214108 -934095 -196992 -69518.6 -35476.8 -22892.2 -18159.8 -131256 -143495 -71116.9
          -36820.2 -20753.7 -13033.7 -9813.84 -43005.1 -40997 -27018.6 -15566.4 -8176.24 -3904.11 -1952.74 -11508.5
          -11057.3 -6811.85 -2283.87 1247.54 3553.69 4679.19 3230.05 2978.49 4404.78 6322.92 8047.39 9281.12
          9914.65 11168 10754.8 11179.9 11993 12836.2 13491.1 13842.7 15724.9 15305 15349.1 15670.8
          16077.9 16424.7 16619.7 18287.3 17888.7 17784.7 17887.8 18084.5 18274.6 18387.5 19453.2 19069.3
          18913.7 18932.6 19044 19168.4 19246.2 -40174.7 -52628.6 -52490.7 -45696 -38227.7 -32673.1 -29816.7
          -51324.4 -75203.4 -65131.8 -50755.4 -39531.9 -32358.9 -28922.1 -83895.7 -182373 -100288 -60828.4 -41022.7
          -30938.6 -26605.1 -187718 -932143 -204796 -76259 -40637.9 -27305.6 -22282.1 -930919 -932256 -916891
          -107849 -36066.6 -20841.4 -15945.2 -927522 -205307 -116153 -42751.8 -20516.2 -11775.2 -8396.61 -125660
          -61468.1 -34223.7 -17000.3 -7903.48 -3151.2 -1077.88 -25980.4 -17637.9 -9205.65 -2827.75 1430.25 4005.8
          5218.26 -162.615 893.155 3520.44 6125.34 8185.44 9568.85 10258 10253.2 10105.2 10887.2 11960.4
          12957 13691.2 14075.5 15482.7 15128.5 15288.4 15712.4 16189.9 16577.7 16790.9 18251.4 17873.3
          17812.4 17959.6 18190.8 18402.8 18526.1 19479.3 19104.9 18971.2 19014.7 19147.1 19285.8 19370.6
          -36720 -46636.7 -47489.4 -42026.4 -35398.2 -30329.8 -27701.8 -44429.7 -58434.8 -55843.4 -45854.3 -36411.9
          -29994.1 -26855.8 -63350.3 -91990.8 -75156.3 -52911.4 -37481.4 -28660.2 -24714.9 -104835 -189438 -110554
          -60956.6 -36658.6 -25326.8 -20738.2 -225848 -265143 -162578 -62674.3 -31236.6 -19305.4 -14839.1 -936975
          -195568 -78202.9 -36787.3 -19086.9 -10996.5 -7718.79 -921678 -112711 -37318.4 -17047.7 -7633.91 -2793.89
          -689.06 -74372.1 -28371.8 -11475 -3284.11 1450.35 4178.68 5440.15 -5776.18 -1663.81 2620.33 5870.87
          8180.64 9663.53 10388.4 9164.28 9405.69 10563.2 11854.8 12962.9 13750.4 14156 15199.2 14915.5
          15176 15677.7 16204.2 16619 16844.1 18164.9 17804.3 17776.1 17954.4 18208.5 18434.8 18564.8
          19445.5 19078.1 18959.6 19019.7 19165.8 19313.6 19402.9
        </DataArray>
        <DataArray type="Float32" Name="saturation" NumberOfComponents="1" format="ascii">
          0.256628 0.254021 0.252471 0.252162 0.256042 0.259224 0.260857 0.25336 0.250425 0.249538 0.250547 0.255017
          0.258554 0.260357 0.246399 0.241591 0.241814 0.245866 0.252606 0.257278 0.259534 0.236256 0.225647 0.225817
          0.234218 0.248474 0.255839 0.258901 0.224749 0.207721 0.207191 0.231517 0.248031 0.256088 0.259473 0.206495
          0.20745 0.224932 0.235983 0.250703 0.258464 0.26177 0.207666 0.227646 0.243141 0.250671 0.25828 0.263314
          0.265766 0.207915 0.240737 0.25569 0.261424 0.265814 0.268922 0.270529 0.244641 0.259095 0.265903 0.269516
          0.272171 0.274073 0.275077 0.265647 0.270038 0.27322 0.275408 0.277061 0.278244 0.27887 0.275157 0.27663
          0.278179 0.27949 0.280548 0.281312 0.281718 0.279909 0.280424 0.281231 0.282057 0.282776 0.283309 0.283594
          0.281955 0.282163 0.282682 0.283294 0.283861 0.284291 0.284522 0.25318 0.249224 0.244029 0.236089 0.247176
          0.253338 0.255946 0.249988 0.246115 0.241438 0.236336 0.246856 0.252939 0.255602 0.243064 0.238533 0.231371
          0.232785 0.245257 0.252145 0.255133 0.232386 0.224061 0.207536 0.207719 0.237754 0.251127 0.255181 0.220054
          0.207714 0.207571 0.230339 0.246393 0.253961 0.257238 0.207578 0.207701 0.230647 0.245155 0.253684 0.258695
          0.261138 0.208867 0.233556 0.248535 0.256001 0.260994 0.264293 0.265987 0.238652 0.252193 0.259965 0.264439
          0.267591 0.269758 0.270889 0.259644 0.264454 0.268352 0.27108 0.273106 0.274524 0.275268 0.270744 0.272506
          0.274472 0.27612 0.277424 0.278354 0.278845 0.277058 0.277711 0.278719 0.279717 0.280568 0.281192 0.281523
          0.280626 0.28084 0.281384 0.282022 0.28261 0.283054 0.283294 0.282255 0.282311 0.282667 0.283145 0.283613
          0.283975 0.284172 0.250088 0.244244 0.231834 0.207657 0.233806 0.246912 0.251006 0.246642 0.241483 0.231069
          0.208533 0.235004 0.246745 0.250676 0.238649 0.235619 0.230336 0.22866 0.239802 0.24678 0.250324 0.22421
          0.223991 0.223544 0.228509 0.239872 0.246352 0.250632 0.207453 0.207671 0.225783 0.23847 0.245386 0.250105
          0.253854 0.225569 0.217502 0.23987 0.249061 0.253929 0.257307 0.259593 0.240067 0.245034 0.253618 0.258638
          0.261927 0.264253 0.265636 0.256656 0.259578 0.263416 0.266371 0.268573 0.270146 0.271019 0.267291 0.268591
          0.270583 0.27239 0.273849 0.274905 0.275475 0.274223 0.274756 0.27582 0.276928 0.277887 0.278595 0.278975
          0.278755 0.278923 0.279489 0.280172 0.280807 0.28129 0.281551 0.281513 0.281509 0.281817 0.282259 0.282702
          0.283051 0.283241 0.28282 0.282749 0.282946 0.28328 0.283634 0.28392 0.284078 0.248386 0.241868 0.232255
          0.222714 0.234532 0.243206 0.247038 0.245014 0.237801 0.224413 0.207593 0.229608 0.241706 0.246195 0.238276
          0.232714 0.224284 0.224653 0.234145 0.239988 0.244863 0.226103 0.223454 0.226256 0.230588 0.233701 0.233374
          0.243389 0.207561 0.207711 0.229061 0.237271 0.235026 0.237155 0.24758 0.234303 0.233582 0.244195 0.249064
          0.250448 0.252836 0.256752 0.251946 0.252531 0.256561 0.259515 0.261404 0.263201 0.264792 0.263257 0.263767
          0.265652 0.267492 0.268984 0.2702 0.270994 0.271012 0.271232 0.27223 0.273381 0.274414 0.275223 0.275691
          0.276408 0.276434 0.276968 0.27768 0.278366 0.278904 0.279205 0.280075 0.279992 0.280266 0.280704 0.281158
          0.281523 0.281726 0.282362 0.282224 0.282356 0.282636 0.282952 0.283214 0.283361 0.283462 0.283301 0.283371
          0.283579 0.28383 0.284045 0.284166 0.247746 0.240212 0.228494 0.225202 0.233947 0.240851 0.244452 0.24399
          0.231879 0.206944 0.207367 0.227117 0.237917 0.24294 0.237991 0.226928 0.207635 0.219155 0.227743 0.230559
          0.239773 0.23027 0.221964 0.21924 0.224379 0.22206 0.207656 0.232468 0.223937 0.207681 0.225147 0.227321
          0.207694 0.207937 0.237038 0.239416 0.235461 0.243145 0.245181 0.240243 0.242519 0.25345 0.254488 0.2546
          0.257193 0.258972 0.259693 0.261561 0.264128 0.265468 0.265624 0.266786 0.268037 0.269131 0.270248 0.271122
          0.272823 0.272757 0.273325 0.274115 0.274902 0.275585 0.276012 0.277765 0.277598 0.277864 0.278338 0.278849
          0.27928 0.279531 0.28106 0.280857 0.28096 0.281237 0.281564 0.281845 0.282007 0.283101 0.282885 0.282903
          0.283067 0.283287 0.283482 0.283596 0.284081 0.283862 0.283842 0.283956 0.284125 0.284282 0.284374 0.248561
          0.242506 0.235456 0.231939 0.233948 0.240159 0.243899 0.244839 0.237303 0.22515 0.222601 0.2259 0.236776
          0.242481 0.237402 0.227579 0.206636 0.217031 0.223419 0.233934 0.24124 0.227916 0.219762 0.207626 0.21689
          0.222071 0.229979 0.241289 0.219231 0.207683 0.207454 0.207586 0.207725 0.232945 0.24659 0.23056 0.233974
          0.236197 0.2376 0.240333 0.25124 0.256786 0.251423 0.254257 0.25638 0.258133 0.260251 0.263441 0.265447
          0.26557 0.266281 0.26736 0.268529 0.269779 0.271058 0.271874 0.273696 0.273656 0.274106 0.274775 0.275505
          0.276163 0.276562 0.27865 0.278427 0.278579 0.27894 0.279368 0.279745 0.279968 0.281806 0.281549 0.281562
          0.281747 0.282 0.28223 0.282365 0.283723 0.283465 0.283413 0.283504 0.28366 0.283811 0.283901 0.284635
          0.284381 0.284303 0.284353 0.284466 0.284582 0.284652 0.250059 0.245065 0.239888 0.235283 0.231125 0.240879
          0.245502 0.246182 0.24085 0.233781 0.223997 0.207549 0.233405 0.244052 0.237113 0.232449 0.222088 0.206285
          0.207286 0.233323 0.244513 0.222457 0.221251 0.214825 0.216044 0.227594 0.241284 0.247938 0.207628 0.2077
          0.207661 0.207629 0.232861 0.24764 0.253388 0.208031 0.231585 0.236886 0.240144 0.251116 0.257593 0.260652
          0.244595 0.253821 0.257281 0.259816 0.263284 0.265983 0.267447 0.265435 0.266879 0.268223 0.269567 0.271039
          0.272281 0.272992 0.274407 0.274405 0.274855 0.275523 0.276267 0.276906 0.277276 0.279352 0.279099 0.279207
          0.279526 0.279923 0.280275 0.28048 0.282407 0.28212 0.282089 0.282228 0.282443 0.282645 0.282766 0.284241
          0.283959 0.283869 0.283918 0.284038 0.284162 0.284239 0.28511 0.284835 0.284723 0.284734 0.284813 0.284904
          0.284961 0.251924 0.247459 0.24369 0.24117 0.241943 0.246737 0.249601 0.24812 0.2432 0.238016 0.231134
          0.233308 0.244487 0.249206 0.238229 0.233582 0.224389 0.207656 0.229591 0.244602 0.250174 0.217688 0.21894
          0.207471 0.207562 0.235079 0.24869 0.253337 0.207674 0.20772 0.225511 0.232526 0.247163 0.254875 0.258155
          0.234008 0.236565 0.246142 0.251515 0.257767 0.261863 0.263858 0.255863 0.257119 0.26039 0.263243 0.266116
          0.268257 0.269383 0.26832 0.26844 0.269575 0.270973 0.272401 0.273536 0.274159 0.275513 0.275273 0.275647
          0.276317 0.27706 0.277678 0.278026 0.280008 0.279696 0.27977 0.280076 0.280466 0.280808 0.281005 0.282901
          0.282591 0.282537 0.282659 0.282861 0.283053 0.283167 0.28466 0.284365 0.284256 0.284287 0.284391 0.284503
          0.284573 0.285498 0.285212 0.285083 0.285075 0.285137 0.285215 0.285266 0.253844 0.249589 0.247326 0.24722
          0.249167 0.252056 0.253833 0.250555 0.244922 0.242614 0.243052 0.246888 0.251526 0.253956 0.243085 0.231766
          0.229835 0.233286 0.24514 0.252016 0.25503 0.230622 0.20751 0.207658 0.231443 0.247462 0.254708 0.257644
          0.230627 0.207727 0.230591 0.245389 0.254344 0.259356 0.261619 0.247708 0.239242 0.249886 0.256706 0.261613
          0.264765 0.2663 0.26099 0.259324 0.262357 0.265475 0.268131 0.270011 0.270976 0.27014 0.269584 0.270597
          0.272075 0.273508 0.274598 0.275179 0.2763 0.275905 0.276253 0.276963 0.277735 0.278357 0.2787 0.280473
          0.280123 0.280194 0.280521 0.28093 0.281281 0.28148 0.283254 0.282933 0.282878 0.283008 0.283217 0.283413
          0.283529 0.28497 0.284669 0.284557 0.284587 0.284692 0.284804 0.284874 0.28579 0.2855 0.285366 0.285355
          0.285415 0.28549 0.28554 0.255293 0.251071 0.250182 0.251477 0.253747 0.255959 0.257244 0.251979 0.245598
          0.246328 0.249306 0.252913 0.255929 0.25754 0.245336 0.232665 0.238559 0.245752 0.252327 0.256552 0.258565
          0.239299 0.223135 0.230304 0.244869 0.253756 0.258584 0.260732 0.235539 0.207741 0.234847 0.250226 0.257973
          0.262154 0.26403 0.249543 0.239839 0.251405 0.258876 0.263708 0.26664 0.268029 0.261602 0.25967 0.263042
          0.266561 0.269348 0.271218 0.272149 0.270334 0.269745 0.270961 0.272674 0.274238 0.275373 0.275962 0.276424
          0.27604 0.276503 0.277344 0.278206 0.278874 0.279232 0.280619 0.28028 0.280409 0.280805 0.281266 0.281649
          0.281861 0.283426 0.28311 0.283083 0.283246 0.283484 0.283698 0.283822 0.285155 0.284857 0.284757 0.284803
          0.284922 0.285044 0.285118 0.285981 0.285692 0.285564 0.285561 0.285629 0.28571 0.285763 0.256227 0.251576
          0.252078 0.254221 0.256635 0.2586 0.259678 0.251615 0.239771 0.247389 0.252408 0.256113 0.258686 0.260002
          0.239332 0.208169 0.235867 0.249296 0.255664 0.259251 0.260922 0.234031 0.207612 0.231238 0.247927 0.256461
          0.260843 0.262753 0.23031 0.207705 0.231823 0.250116 0.259326 0.263732 0.265581 0.239232 0.237613 0.249756
          0.258894 0.264553 0.267721 0.269146 0.25699 0.257593 0.262211 0.266644 0.269897 0.271944 0.272924 0.268388
          0.268588 0.270537 0.272756 0.274598 0.275859 0.276492 0.275679 0.27554 0.276337 0.277438 0.27846 0.279209
          0.279601 0.280388 0.280126 0.280396 0.280916 0.281464 0.281895 0.282129 0.283406 0.283117 0.283147 0.283369
          0.283651 0.283893 0.284029 0.28522 0.284932 0.284857 0.284931 0.285073 0.285211 0.285293 0.286076 0.285792
          0.285677 0.285691 0.285773 0.285865 0.285922 0.257844 0.254275 0.254312 0.256202 0.258449 0.260249 0.261223
          0.254626 0.248862 0.25113 0.254781 0.258042 0.260355 0.261535 0.247065 0.23323 0.24402 0.252168 0.257585
          0.260837 0.26236 0.232702 0.207729 0.231116 0.248636 0.257703 0.262108 0.263964 0.207745 0.207728 0.207924
          0.242746 0.259135 0.264519 0.266487 0.207788 0.231071 0.24143 0.257065 0.264646 0.26827 0.269795 0.240019
          0.252011 0.259735 0.266052 0.270024 0.272319 0.273373 0.262586 0.265792 0.269423 0.272481 0.274696 0.276112
          0.276799 0.27385 0.274408 0.27584 0.277323 0.278543 0.279387 0.279815 0.279812 0.279719 0.28021 0.280895
          0.281543 0.282028 0.282284 0.283239 0.282996 0.283106 0.283397 0.283729 0.284 0.28415 0.285194 0.284921
          0.284877 0.284983 0.28515 0.285304 0.285394 0.286095 0.285818 0.28572 0.285752 0.285849 0.285952 0.286014
          0.258926 0.255932 0.255689 0.257282 0.259351 0.261046 0.261966 0.25657 0.252765 0.253428 0.256156 0.259024
          0.261162 0.262269 0.251555 0.245509 0.248872 0.254199 0.258684 0.261627 0.26305 0.243245 0.232536 0.242309
          0.252137 0.258945 0.262825 0.264559 0.229347 0.226489 0.235332 0.251718 0.260735 0.265122 0.26695 0.207668
          0.231955 0.248226 0.258904 0.265209 0.268615 0.27011 0.207862 0.241966 0.258735 0.266032 0.27015 0.272498
          0.273575 0.249041 0.261729 0.268403 0.272252 0.274707 0.276209 0.276927 0.271031 0.273072 0.275343 0.277175
          0.27854 0.279445 0.279896 0.279138 0.279286 0.280006 0.280827 0.281547 0.282067 0.282338 0.283045 0.282851
          0.283029 0.283374 0.283739 0.284029 0.284187 0.285131 0.284871 0.284851 0.284979 0.285163 0.285327 0.285422
          0.28607 0.285798 0.285711 0.285755 0.285863 0.285972 0.286038
        </DataArray>
        <DataArray type="Float32" Name="process rank" NumberOfComponents="1" format="ascii">
          3 3 3 3 3 3 3 3 3 3 3 3
          3 3 3 3 3 3 3 3 3 3 3 3
          3 3 3 3 3 3 3 3 3 3 3 3
          3 3 3 3 3 3 3 3 3 3 3 3
          3 3 3 3 3 3 3 3 3 3 3 3
          3 3 3 3 3 3 3 3 3 3 3 3
          3 3 3 3 3 3 3 3 3 3 3 3
          3 3 3 3 3 3 3 3 3 3 3 3
          3 3 3 3 3 3 3 3 3 3 3 3
          3 3 3 3 3 3 3 3 3 3 3 3
          3 3 3 3 3 3 3 3 3 3 3 3
          3 3 3 3 3 3 3 3 3 3 3 3
          3 3 3 3 3 3 3 3 3 3 3 3
          3 3 3 3 3 3 3 3 3 3 3 3
          3 3 3 3 3 3 3 3 3 3 3 3
          3 3 3 3 3 3 3 3 3 3 3 3
          3 3 3 3 3 3 3 3 3 3 3 3
          3 3 3 3 3 3 3 3 3 3 3 3
          3 3 3 3 3 3 3 3 3 3 3 3
          3 3 3 3 3 3 3 3 3 3 3 3
          3 3 3 3 3 3 3 3 3 3 3 3
          3 3 3 3 3 3 3 3 3 3 3 3
          3 3 3 3 3 3 3 3 3 3 3 3
          3 3 3 3 3 3 3 3 3 3 3 3
          3 3 3 3 3 3 3 3 3 3 3 3
          3 3 3 3 3 3 3 3 3 3 3 3
          3 3 3 3 3 3 3 3 3 3 3 3
          3 3 3 3 3 3 3 3 3 3 3 3
          3 3 3 3 3 3 3 3 3 3 3 3
          3 3 3 3 3 3 3 3 3 3 3 3
          3 3 3 3 3 3 3 3 3 3 3 3
          3 3 3 3 3 3 3 3 3 3 3 3
          3 3 3 3 3 3 3 3 3 3 3 3
          3 3 3 3 3 3 3 3 3 3 3 3
          3 3 3 3 3 3 3 3 3 3 3 3
          3 3 3 3 3 3 3 3 3 3 3 3
          3 3 3 3 3 3 3 3 3 3 3 3
          3 3 3 3 3 3 3 3 3 3 3 3
          3 3 3 3 3 3 3 3 3 3 3 3
          3 3 3 3 3 3 3 3 3 3 3 3
          3 3 3 3 3 3 3 3 3 3 3 3
          3 3 3 3 3 3 3 3 3 3 3 3
          3 3 3 3 3 3 3 3 3 3 3 3
          3 3 3 3 3 3 3 3 3 3 3 3
          3 3 3 3 3 3 3 3 3 3 3 3
          3 3 3 3 3 3 3 3 3 3 3 3
          3 3 3 3 3 3 3 3 3 3 3 3
          3 3 3 3 3 3 3 3 3 3 3 3
          3 3 3 3 3 3 3 3 3 3 3 3
          3 3 3 3 3 3 3 3 3 3 3 3
          3 3 3 3 3 3 3 3 3 3 3 3
          3 3 3 3 3 3 3 3 3 3 3 3
          3 3 3 3 3 3 3 3 3 3 3 3
          3 3 3 3 3 3 3 3 3 3 3 3
          3 3 3 3 3 3 3 3 3 3 3 3
          3 3 3 3 3 3 3 3 3 3 3 3
          3 3 3 3 3 3 3 3 3 3 3 3
          3 3 3 3 3 3 3 3 3 3 3 3
          3 3 3 3 3 3 3 3 3 3 3 3
          3 3 3 3 3 3 3 3 3 3 3 3
          3 3 3 3 3 3 3 3 3 3 3 3
          3 3 3 3 3 3 3 3 3 3 3 3
          3 3 3 3 3 3 3 3 3 3 3 3
          3 3 3 3 3 3 3 3 3 3 3 3
          3 3 3 3 3 3 3 3 3 3 3 3
          3 3 3 3 3 3 3 3 3 3 3 3
          3 3 3 3 3 3 3 3 3 3 3 3
          3 3 3 3 3 3 3 3 3 3 3 3
          3 3 3 3 3 3 3 3 3 3 3 3
          3 3 3 3 3 3 3 3 3 3 3 3
          3 3 3 3 3 3 3 3 3 3 3 3
          3 3 3 3 3 3 3 3 3 3 3 3
          3 3 3 3 3 3 3 3 3 3 3 3
          3 3 3 3 3 3 3 3 3 3 3 3
          3 3 3 3 3 3 3 3 3 3 3 3
          3 3 3 3 3 3 3 3 3 3 3 3
          3 3 3 3 3 3 3 3 3 3 3 3
          3 3 3 3 3 3 3 3 3 3 3 3
          3 3 3 3 3 3 3 3 3 3 3 3
          3 3 3 3 3 3 3 3 3 3 3 3
          3 3 3 3 3 3 3 3 3 3 3 3
          3 3 3 3 3 3 3 3 3 3 3 3
          3 3 3 3 3 3 3 3 3 3 3 3
          3 3 3 3 3 3 3 3 3 3 3 3
          3 3 3 3 3 3 3 3 3 3 3 3
          3 3 3 3 3 3 3 3 3 3 3 3
          3 3 3 3 3 3 3 3 3 3 3 3
          3 3 3 3 3 3 3 3 3 3 3 3
          3 3 3 3 3 3 3 3 3 3 3 3
          3 3 3 3 3 3 3 3 3 3 3 3
          3 3 3 3 3 3 3 3 3 3 3 3
          3 3 3 3 3 3 3 3 3 3 3 3
          3 3 3 3 3 3 3 3 3 3 3 3
          3 3 3 3 3 3 3 3 3 3 3 3
          3 3 3 3 3 3 3 3 3 3 3 3
          3 3 3 3 3 3 3 3 3 3 3 3
          3 3 3 3 3 3 3 3 3 3 3 3
          3 3 3 3 3 3 3 3 3 3 3 3
          3 3 3 3 3 3 3
        </DataArray>
      </CellData>
      <Points>
        <DataArray type="Float32" Name="Coordinates" NumberOfComponents="3" format="ascii">
          -0.00307692 -0.04 -0.078 0.00307692 -0.04 -0.078 -0.00307692 -0.0338462 -0.078 0.00307692 -0.0338462 -0.078
          -0.00307692 -0.04 -0.072 0.00307692 -0.04 -0.072 -0.00307692 -0.0338462 -0.072 0.00307692 -0.0338462 -0.072
          0.00923077 -0.04 -0.078 0.00923077 -0.0338462 -0.078 0.00923077 -0.04 -0.072 0.00923077 -0.0338462 -0.072
          0.0153846 -0.04 -0.078 0.0153846 -0.0338462 -0.078 0.0153846 -0.04 -0.072 0.0153846 -0.0338462 -0.072
          0.0215385 -0.04 -0.078 0.0215385 -0.0338462 -0.078 0.0215385 -0.04 -0.072 0.0215385 -0.0338462 -0.072
          0.0276923 -0.04 -0.078 0.0276923 -0.0338462 -0.078 0.0276923 -0.04 -0.072 0.0276923 -0.0338462 -0.072
          0.0338462 -0.04 -0.078 0.0338462 -0.0338462 -0.078 0.0338462 -0.04 -0.072 0.0338462 -0.0338462 -0.072
          0.04 -0.04 -0.078 0.04 -0.0338462 -0.078 0.04 -0.04 -0.072 0.04 -0.0338462 -0.072
          -0.00307692 -0.0276923 -0.078 0.00307692 -0.0276923 -0.078 -0.00307692 -0.0276923 -0.072 0.00307692 -0.0276923 -0.072
          0.00923077 -0.0276923 -0.078 0.00923077 -0.0276923 -0.072 0.0153846 -0.0276923 -0.078 0.0153846 -0.0276923 -0.072
          0.0215385 -0.0276923 -0.078 0.0215385 -0.0276923 -0.072 0.0276923 -0.0276923 -0.078 0.0276923 -0.0276923 -0.072
          0.0338462 -0.0276923 -0.078 0.0338462 -0.0276923 -0.072 0.04 -0.0276923 -0.078 0.04 -0.0276923 -0.072
          -0.00307692 -0.0215385 -0.078 0.00307692 -0.0215385 -0.078 -0.00307692 -0.0215385 -0.072 0.00307692 -0.0215385 -0.072
          0.00923077 -0.0215385 -0.078 0.00923077 -0.0215385 -0.072 0.0153846 -0.0215385 -0.078 0.0153846 -0.0215385 -0.072
          0.0215385 -0.0215385 -0.078 0.0215385 -0.0215385 -0.072 0.0276923 -0.0215385 -0.078 0.0276923 -0.0215385 -0.072
          0.0338462 -0.0215385 -0.078 0.0338462 -0.0215385 -0.072 0.04 -0.0215385 -0.078 0.04 -0.0215385 -0.072
          -0.00307692 -0.0153846 -0.078 0.00307692 -0.0153846 -0.078 -0.00307692 -0.0153846 -0.072 0.00307692 -0.0153846 -0.072
          0.00923077 -0.0153846 -0.078 0.00923077 -0.0153846 -0.072 0.0153846 -0.0153846 -0.078 0.0153846 -0.0153846 -0.072
          0.0215385 -0.0153846 -0.078 0.0215385 -0.0153846 -0.072 0.0276923 -0.0153846 -0.078 0.0276923 -0.0153846 -0.072
          0.0338462 -0.0153846 -0.078 0.0338462 -0.0153846 -0.072 0.04 -0.0153846 -0.078 0.04 -0.0153846 -0.072
          -0.00307692 -0.00923077 -0.078 0.00307692 -0.00923077 -0.078 -0.00307692 -0.00923077 -0.072 0.00307692 -0.00923077 -0.072
          0.00923077 -0.00923077 -0.078 0.00923077 -0.00923077 -0.072 0.0153846 -0.00923077 -0.078 0.0153846 -0.00923077 -0.072
          0.0215385 -0.00923077 -0.078 0.0215385 -0.00923077 -0.072 0.0276923 -0.00923077 -0.078 0.0276923 -0.00923077 -0.072
          0.0338462 -0.00923077 -0.078 0.0338462 -0.00923077 -0.072 0.04 -0.00923077 -0.078 0.04 -0.00923077 -0.072
          -0.00307692 -0.00307692 -0.078 0.00307692 -0.00307692 -0.078 -0.00307692 -0.00307692 -0.072 0.00307692 -0.00307692 -0.072
          0.00923077 -0.00307692 -0.078 0.00923077 -0.00307692 -0.072 0.0153846 -0.00307692 -0.078 0.0153846 -0.00307692 -0.072
          0.0215385 -0.00307692 -0.078 0.0215385 -0.00307692 -0.072 0.0276923 -0.00307692 -0.078 0.0276923 -0.00307692 -0.072
          0.0338462 -0.00307692 -0.078 0.0338462 -0.00307692 -0.072 0.04 -0.00307692 -0.078 0.04 -0.00307692 -0.072
          -0.00307692 0.00307692 -0.078 0.00307692 0.00307692 -0.078 -0.00307692 0.00307692 -0.072 0.00307692 0.00307692 -0.072
          0.00923077 0.00307692 -0.078 0.00923077 0.00307692 -0.072 0.0153846 0.00307692 -0.078 0.0153846 0.00307692 -0.072