<?xml version="1.0"?>
<VTKFile type="UnstructuredGrid" version="0.1" byte_order="LittleEndian">
  <UnstructuredGrid>
    <Piece NumberOfCells="1092" NumberOfPoints="1456">
      <CellData Scalars="p (Pa)">
        <DataArray type="Float32" Name="p (Pa)" NumberOfComponents="1" format="ascii">
          33298.5 32996.9 32815.7 32743.2 32743.7 32774.6 32799.9 33296 32990.6 32812.4 32747.6 32757.2
          32795.4 32824.8 33318 33006.7 32833.9 32782.3 32806.5 32856.4 32892.1 33411.3 33096.1 32929.9
          32891.2 32929.1 32989.4 33030.6 33625.3 33313.5 33153 33120.2 33162.7 33226.1 33268.7 33983.1
          33686.8 33529.7 33491.8 33525.9 33581.7 33620.1 34459.9 34188.2 34035.5 33986.7 34003.8 34044.5
          34074.3 35003.8 34760.4 34614.5 34555.3 34554 34577.2 34596.8 35556.5 35340.6 35203.3 35136.6
          35119.8 35127.5 35137.7 36064.8 35872.5 35743.6 35672.8 35644.7 35640.4 35643.1 36484.3 36310.2
          36188.7 36115.8 36080.2 36067.6 36065 36782.1 36620.2 36503.8 36430 36390.1 36372.4 36366.6
          36936.2 36780.6 36666.7 36592.7 36550.8 36530.7 36523.3 32558.7 32235.3 32059.8 32013 32046.5
          32105.8 32147.2 32524.2 32193.4 32023.5 31990.9 32040 32111.4 32159.3 32491.9 32147.9 31988.6
          31980.7 32056 32147.4 32205.7 32530.9 32173 32026.6 32045 32146.1 32256.3 32324.2 32724
          32363.1 32225.7 32255.8 32366.4 32482.8 32553.9 33119.5 32780.7 32640.5 32655 32748.4 32852.2
          32916.9 33671 33368.3 33225.6 33213.5 33275.1 33353.5 33404.7 34300.7 34037.1 33897.4 33862.4
          33891.9 33942.3 33977.7 34936.4 34707.9 34575 34524.6 34528.7 34555.1 34576.3 35516.8 35316.6
          35191.4 35131.9 35118.1 35126.7 35137 35993.1 35813.8 35695.1 35630.5 35605.3 35601.8 35604.7
          36329.6 36164 36049.9 35982.6 35950.6 35939.9 35938.1 36503.4 36344.5 36232.7 36164.3 36129.2
          36115.1 36111.2 31073.5 30703.2 30545.3 30561.2 30671.6 30795.6 30873.1 30954.7 30566.7 30423.4
          30472.2 30616.2 30765 30855.2 30772.7 30347.6 30234.2 30345.1 30548.9 30740.1 30851.8 30648.8
          30171.5 30099.9 30284.7 30552.8 30787.2 30920 30766.1 30251.9 30211.9 30435.1 30730.7 30982.5
          31124 31270.6 30811.2 30735 30901.4 31152 31377.1 31507.1 32020 31639.9 31531.3 31617.5
          31791 31962.9 32066.7 32860.6 32552.6 32433.1 32459.2 32562.7 32678.5 32752 33691.4 33438.6
          33320.1 33309.3 33362.2 33432.5 33479.7 34437.7 34223.8 34109.8 34077.5 34096.9 34135 34162.7
          35042.5 34854.5 34744.7 34699.8 34698.1 34715.3 34730.2 35465.7 35293.8 35186.7 35134.6 35120.6
          35125.5 35132.7 35683 35518.6 35412.9 35357.6 35337.9 35337.1 35340.8 28709.6 28261.4 28149.1
          28290.3 28544.6 28785.5 28926.9 28401.6 27909.4 27839.3 28061.8 28392 28685.3 28852.7 27857.4
          27255.1 27284 27675.9 28151 28539.3 28752.3 27283.9 26471.1 26678.6 27309.7 27959.9 28453.7
          28715.8 27130.5 26069.8 26479.6 27277.1 28020.4 28566.8 28854.2 27958.3 27154 27319.3 27888.9
          28500.5 28988 29255.2 29186.4 28633.1 28630.4 28942.4 29350.6 29718.8 29933.4 30465.6 30083.3
          30020.9 30173.6 30421.8 30668.8 30820 31677 31394.6 31316 31383.9 31528.4 31682.8 31780.6
          32736.2 32509.8 32425.8 32447 32527.4 32620.1 32680.4 33577 33382.3 33294.7 33288.2 33329.4
          33383.8 33420.4 34156.2 33979 33888.8 33866 33884.4 33916.8 33939.9 34450.7 34281.4 34189.7
          34159.2 34167.1 34189.5 34206.4 25255.2 24692.2 24687.3 25061 25563.1 25996.3 26240.4 24540.3
          23871.4 23990.4 24562.6 25231.8 25773.4 26069 23130.5 22120.8 22592.1 23634.6 24652.2 25402.7
          25794.2 21258.8 19280.3 20655.5 22530.3 24037.2 25047.7 25553.1 20018.3 16001 19203.3 21932.3
          23780.6 24955.7 25535.9 22045.5 20016.6 21204.8 22879.9 24314.2 25365.8 25920.6 24505.6 23541.1
          23864.1 24665.7 25533.1 26319 26772.9 26674.8 26199.7 26290.5 26681.8 27187.3 27695 28007.1
          28612.1 28328.4 28352.9 28564.5 28866.4 29176.3 29371.4 30246.5 30033.6 30023.7 30142.9 30327.2
          30515.2 30633.7 31504.7 31319.5 31283.9 31347.3 31460.8 31577.5 31650.7 32350.4 32177.4 32124.1
          32153.6 32226 32303.2 32351.8 32773.7 32605.6 32543.4 32556.7 32610 32669.5 32707.3 20420.6
          19714.7 19940.2 20716 21613.9 22341.4 22738.9 18861.4 17929.5 18505.8 19735.9 20978.7 21916.5
          22411 15390.3 13421.7 15261.8 17742 19778.6 21153.7 21840.6 9527.46 2436.18 9480.71 14899.2
          18273.2 20273.6 21218.7 3164.6 -29935 2070.36 12474.8 17158.5 19686 20852.5 10827 3246.04
          9482.86 14202.6 17559.7 19904.8 21096.7 16647.3 14650.1 15956.6 17671 19311.7 21128.5 22168.6
          20546.6 20115.8 20605.8 21373.5 22269.8 23346.8 24023.7 23932.6 23817.9 24103.1 24553.7 25101.5
          25708.7 26099.3 26673.5 26576.6 26742.3 27033 27384.2 27737.2 27959.9 28684.4 28561.4 28639.6
          28825.1 29055 29272.5 29405.9 29983.8 29841.8 29863.6 29982.1 30140 30286.8 30375 30618
          30467.8 30462.7 30548.7 30672.9 30788.9 30858.1 13874.2 13063.4 13728.4 15131.6 16606.1 17747.9
          18357.7 10637.7 9523.26 11072.9 13388.5 15502.1 17018.6 17797.7 2277.58 -1363.21 4319.64 9520.02
          13259.6 15623 16763.8 -16687.5 -50003.8 -11557.2 2874.86 9980.65 13775 15477.9 -50690.5 -634486
          -51996.2 -5734.94 6511.13 12025.3 14378 -11233.3 -49055.1 -14355.2 -3077.42 5512.68 11371.1 14125.1
          3019.11 -1231.53 2645.63 5013.94 6939.93 12546.1 15359.7 9608.22 10426.4 11922.6 12984.7 14174.3
          16800 18419.8 16365.5 17150.8 18090.1 18880.8 19751.3 20981.4 21788.9 21474.2 21819.7 22389.2
          22966.7 23570.9 24213.2 24624.1 24911.1 24987.5 25301.7 25692.5 26101.4 26477.8 26707.1 26990.5
          26939.7 27103.8 27366.7 27653.3 27902.9 28049.4 27966.3 27867.4 27964.2 28164.5 28393.3 28590.1
          28703.8 5359.44 4666.55 6029.09 8280.43 10506.7 12180.3 13060.3 -1153.5 -1330.31 1744.31 5497.67
          8765.36 11043.6 12193.9 -22306.1 -20657.1 -9850.5 -1212.06 4959.46 8735.72 10512.4 -96959 -106030
          -40700.1 -15393.3 -1615.73 5266.4 8192.69 -137244 -923635 -136175 -46812 -11683 974.31 5717.43
          -45246.5 -104302 -55717 -59025.4 -21287.4 -2788.4 4133.39 -21492.8 -24418.9 -19502.4 -24383.9 -38444.6
          -4548.43 5043.18 -15292.1 -5385.51 -1457.51 -1484.25 -1983.89 6399.1 10669.3 2602.02 7126.55 9698.98
          10853.2 11989.4 14678.9 16377 13633.4 15355.3 16813.6 17852.6 18821.1 19972.4 20708.2 19925.7
          20513.6 21284.4 22003.3 22673.7 23288.4 23660.4 23344.6 23498.8 23909.2 24390.6 24858.5 25249.8
          25475.7 24856.2 24864 25125 25491.2 25863.1 26167 26338.7 -4935.33 -5261.03 -3006.97 242.309
          3346.41 5642.21 6839.17 -17985.8 -14576.7 -9299.47 -3773.37 878.816 4050.93 5633.94 -90967.8 -46692.2
          -28448.8 -14599.8 -4907.09 666.245 3210.36 -914843 -183392 -108894 -49014.8 -17027.4 -5000.38 -390.875
          -921640 -931242 -924546 -300024 -47165.8 -13822 -4848.38 -130232 -172291 -166472 -591984 -97300.6
          -25859.9 -8942.39 -75593.2 -62763.2 -61487.5 -127166 -519338 -50032.8 -9858.59 -106689 -34937.1 -22712.9
          -29690.2 -45869.9 -9871.06 1041.3 -26919.4 -8229.71 -1575.04 -171.239 992.507 7075.4 10345.6 1385.4
          6886.22 10144.5 11908.4 13418.5 15379.4 16577 13551.2 15248.9 16804.4 18005.9 19034.6 19965.1
          20516.3 19166.2 19695.4 20478.8 21256.3 21954.6 22518.6 22838 21451.1 21634.4 22124.5 22703.9
          23250.2 23680.1 23918.3 -14956 -15726.7 -12948.3 -8844.83 -4862.93 -1889.75 -334.281 -30628.8 -27201.8
          -20446.6 -13616.9 -7849.49 -3841.49 -1820.57 -113515 -65079 -40853.3 -25489.3 -14683.5 -7989.11 -4824.4
          -926200 -205362 -93539.1 -52445.7 -27906.7 -14900.4 -9326.74 -303723 -933205 -242771 -119544 -55347.8
          -25770.5 -15009.1 -158739 -240541 -208707 -277222 -137973 -44096.9 -20574.8 -213073 -132041 -149426
          -908083 -909165 -84986.8 -21774.7 -886947 -107802 -54345.1 -92278.3 -81953.3 -21925.3 -6599.46 -107328
          -30690.4 -14548.7 -12897.3 -8152.51 994.293 5339.59 -17223.2 -2843.54 3369.25 6197.01 8711.75 11427.5
          12973.3 6290.34 9849.71 12463.8 14263.3 15731.6 16965.6 17667.2 14937.2 15977.2 17202.8 18310
          19254.4 19985.6 20389.3 18128.7 18524.4 19266.7 20070.4 20793.6 21345.2 21645.3 -24467.1 -26744.6
          -24259.2 -19607.3 -14573.1 -10689 -8644.6 -40554.6 -40115.4 -33041.8 -25093.9 -17952.1 -12868.2 -10289.6
          -122847 -85844 -56725.9 -38513.9 -25553.4 -17410.7 -13540.3 -928028 -256377 -115310 -68310.4 -39684.5
          -24614.1 -18141.6 -940826 -935124 -281567 -164102 -67714.1 -34718 -23167.6 -297771 -382720 -351876
          -933853 -143441 -46818.3 -26078.7 -934966 -243377 -197521 -917644 -147633 -44256.3 -21535.2 -938472
          -140599 -70056.2 -96519.2 -42851.2 -17887.5 -8469.7 -143538 -43715.5 -21923.1 -17030.3 -8018.99 -777.993
          2811.33 -28498.9 -9330.52 -1156.07 2831.82 6251.46 9031.08 10540.8 1219.19 5891.68 9233.02 11527.2
          13339 14715.6 15465.5 11711.1 13068.8 14600.3 15955.5 17081.6 17918.3 18368.8 15476.3 16007.3
          16924.4 17890.9 18742.1 19377.2 19717.6 -33751.1 -39086.6 -38526.4 -34190.9 -27138.1 -21487.5 -18555
          -46982.3 -55544.9 -49457.6 -40600.5 -30826.5 -23739.6 -20199.4 -89077.1 -138541 -83806.2 -57255.5 -39188
          -28292.2 -23277 -219970 -939467 -212083 -97199.7 -54171.1 -34778.7 -27009.5 -318117 -935893 -939440
          -211410 -77578.3 -41214.8 -29464 -937140 -1.11827e+06 -940862 -916365 -122110 -43881.1 -27812.2 -961319
          -268837 -175478 -158549 -62450.2 -30473.1 -19433.2 -301844 -105947 -59855.7 -46192.7 -25734.2 -13420
          -7884.89 -122208 -41721.9 -21205.7 -12859.8 -5692.79 -551.619 2053.32 -27868.7 -10552 -2420.99 2111.06
          5499.23 7948.41 9237.68 -29.8601 4310.73 7658.49 10093.6 11963.1 13304.8 14014.5 10202.8 11479.7
          13022 14433.4 15603 16453.4 16904 13943.2 14444.4 15373 16374.7 17259.7 17915.2 18263.9
        </DataArray>
        <DataArray type="Float32" Name="saturation" NumberOfComponents="1" format="ascii">
          0.298006 0.297705 0.297525 0.297453 0.297454 0.297484 0.297509 0.298003 0.297698 0.297522 0.297458 0.297467
          0.297505 0.297534 0.298025 0.297715 0.297543 0.297492 0.297516 0.297565 0.297601 0.298119 0.297804 0.297638
          0.2976 0.297637 0.297697 0.297738 0.298335 0.298021 0.29786 0.297828 0.29787 0.297933 0.297976 0.298698
          0.298397 0.298238 0.2982 0.298234 0.298291 0.298329 0.299186 0.298907 0.298751 0.298701 0.298719 0.29876
          0.29879 0.29975 0.299497 0.299346 0.299284 0.299283 0.299307 0.299327 0.300331 0.300103 0.299959 0.299889
          0.299871 0.29988 0.29989 0.300872 0.300667 0.30053 0.300454 0.300425 0.30042 0.300423 0.301324 0.301136
          0.301005 0.300927 0.300889 0.300876 0.300873 0.301648 0.301472 0.301346 0.301266 0.301223 0.301203 0.301197
          0.301817 0.301647 0.301523 0.301442 0.301397 0.301375 0.301367 0.297271 0.296954 0.296783 0.296737 0.29677
          0.296827 0.296868 0.297237 0.296913 0.296747 0.296716 0.296763 0.296833 0.29688 0.297205 0.296869 0.296713
          0.296706 0.296779 0.296868 0.296925 0.297244 0.296893 0.29675 0.296768 0.296867 0.296974 0.297041 0.297434
          0.297079 0.296944 0.296974 0.297082 0.297196 0.297266 0.297827 0.29749 0.297352 0.297366 0.297458 0.297561
          0.297625 0.298381 0.298076 0.297933 0.297921 0.297982 0.298061 0.298112 0.299022 0.298753 0.29861 0.298575
          0.298605 0.298656 0.298692 0.29968 0.299442 0.299305 0.299253 0.299257 0.299284 0.299306 0.300289 0.300078
          0.299946 0.299884 0.29987 0.299879 0.299889 0.300796 0.300604 0.300478 0.30041 0.300383 0.300379 0.300382
          0.301157 0.300979 0.300857 0.300784 0.30075 0.300739 0.300737 0.301345 0.301173 0.301053 0.300979 0.300942
          0.300926 0.300922 0.295834 0.295483 0.295334 0.295349 0.295453 0.29557 0.295644 0.295721 0.295355 0.29522
          0.295266 0.295401 0.295541 0.295627 0.295549 0.295149 0.295043 0.295147 0.295338 0.295518 0.295623 0.295432
          0.294985 0.294918 0.29509 0.295342 0.295562 0.295688 0.295542 0.29506 0.295022 0.295231 0.295509 0.295747
          0.295882 0.296022 0.295585 0.295513 0.29567 0.295909 0.296124 0.296248 0.296744 0.296376 0.296272 0.296355
          0.296522 0.296688 0.296789 0.297569 0.297265 0.297148 0.297173 0.297275 0.297389 0.297462 0.298401 0.298146
          0.298028 0.298017 0.29807 0.29814 0.298188 0.299163 0.298943 0.298827 0.298794 0.298814 0.298853 0.298881
          0.299791 0.299595 0.29948 0.299434 0.299432 0.29945 0.299465 0.300235 0.300054 0.299941 0.299887 0.299872
          0.299877 0.299885 0.300465 0.300291 0.300179 0.300121 0.3001 0.3001 0.300103 0.293645 0.293243 0.293143
          0.293269 0.293497 0.293713 0.293841 0.293368 0.29293 0.292868 0.293065 0.29336 0.293623 0.293774 0.292884
          0.292355 0.29238 0.292724 0.293145 0.293492 0.293684 0.29238 0.291676 0.291855 0.292402 0.292975 0.293415
          0.293651 0.292246 0.291333 0.291683 0.292374 0.293028 0.293516 0.293776 0.292973 0.292267 0.292411 0.292912
          0.293457 0.293897 0.29414 0.294077 0.293576 0.293574 0.293855 0.294227 0.294565 0.294764 0.29526 0.294903
          0.294845 0.294987 0.295219 0.295451 0.295593 0.296412 0.29614 0.296065 0.29613 0.296269 0.296417 0.296512
          0.297446 0.297223 0.29714 0.297161 0.29724 0.297332 0.297391 0.298286 0.29809 0.298002 0.297996 0.298037
          0.298091 0.298128 0.298874 0.298693 0.298602 0.298578 0.298597 0.29863 0.298654 0.299177 0.299002 0.298908
          0.298877 0.298885 0.298908 0.298926 0.290646 0.290178 0.290174 0.290484 0.290904 0.291271 0.291479 0.290053
          0.289506 0.289603 0.290071 0.290627 0.291082 0.291333 0.288909 0.28811 0.288481 0.289314 0.290145 0.29077
          0.291099 0.287441 0.285948 0.286979 0.288432 0.289641 0.290473 0.290896 0.286498 0.283597 0.285891 0.287962
          0.289432 0.290397 0.290881 0.288051 0.286496 0.287399 0.288709 0.289867 0.290739 0.291206 0.290024 0.289239
          0.2895 0.290156 0.290879 0.291546 0.291936 0.291851 0.291444 0.291521 0.291857 0.292296 0.292741 0.293017
          0.293557 0.293303 0.293325 0.293514 0.293787 0.294068 0.294246 0.295055 0.294856 0.294847 0.294958 0.29513
          0.295306 0.295418 0.296246 0.296068 0.296034 0.296095 0.296204 0.296316 0.296387 0.297067 0.296897 0.296845
          0.296874 0.296945 0.29702 0.297068 0.297483 0.297317 0.297256 0.297269 0.297322 0.29738 0.297418 0.286801
          0.28627 0.286439 0.287025 0.287715 0.288283 0.288597 0.285639 0.284961 0.285379 0.286286 0.287226 0.28795
          0.288338 0.283176 0.281849 0.283088 0.284827 0.286318 0.28736 0.287891 0.279361 0.275242 0.279332 0.28284
          0.28521 0.28669 0.28741 0.275643 0.261182 0.275043 0.281228 0.28441 0.286249 0.287129 0.280172 0.275688
          0.279333 0.282369 0.284696 0.286412 0.287316 0.284049 0.282671 0.283567 0.284776 0.285971 0.28734 0.288147
          0.286896 0.286571 0.286941 0.287529 0.288227 0.289082 0.28963 0.289556 0.289462 0.289695 0.290064 0.290518
          0.291027 0.291358 0.29185 0.291767 0.29191 0.292161 0.292468 0.292778 0.292975 0.293622 0.293512 0.293582
          0.293749 0.293958 0.294156 0.294278 0.29481 0.294679 0.294699 0.294809 0.294955 0.295092 0.295175 0.295403
          0.295262 0.295257 0.295338 0.295455 0.295564 0.295629 0.28215 0.281613 0.282053 0.282999 0.28402 0.284831
          0.285271 0.280053 0.279358 0.280328 0.281827 0.283253 0.284311 0.284867 0.275155 0.273226 0.276289 0.279356
          0.281742 0.283336 0.284131 0.26618 0.254988 0.268366 0.275483 0.279642 0.282084 0.283236 0.254799 0.212639
          0.254445 0.271051 0.277548 0.280937 0.282487 0.26851 0.25525 0.267154 0.272356 0.276968 0.280517 0.282317
          0.275562 0.273294 0.275357 0.276683 0.2778 0.281274 0.283155 0.279411 0.27992 0.28087 0.281561 0.28235
          0.284156 0.285316 0.283851 0.284405 0.285077 0.285653 0.286298 0.287228 0.287851 0.287607 0.287875 0.288321
          0.288778 0.289263 0.289784 0.290122 0.290359 0.290423 0.290685 0.291014 0.29136 0.291682 0.291879 0.292124
          0.29208 0.292223 0.292452 0.292704 0.292924 0.293054 0.29298 0.292893 0.292979 0.293157 0.293361 0.293537
          0.29364 0.27688 0.276485 0.277267 0.2786 0.27997 0.281037 0.281611 0.273334 0.273243 0.274866 0.27696
          0.278894 0.280309 0.281046 0.263955 0.264591 0.26913 0.273304 0.276651 0.278876 0.279974 0.244605 0.243046
          0.257684 0.266717 0.273096 0.276827 0.278547 0.238423 0.207837 0.238565 0.255882 0.268311 0.274452 0.277087
          0.256332 0.243335 0.253461 0.252617 0.264346 0.272501 0.276184 0.264267 0.26316 0.265044 0.263173 0.258381
          0.271627 0.276699 0.266759 0.271219 0.273178 0.273164 0.272908 0.277483 0.280073 0.275333 0.27791 0.279467
          0.280189 0.280914 0.282691 0.283859 0.281989 0.283152 0.284166 0.284906 0.285609 0.286463 0.287019 0.286428
          0.286871 0.28746 0.288018 0.288545 0.289035 0.289335 0.28908 0.289204 0.289537 0.28993 0.290316 0.290642
          0.290831 0.290314 0.29032 0.290537 0.290844 0.291158 0.291416 0.291563 0.271438 0.271279 0.272391 0.274063
          0.275744 0.277043 0.277741 0.265651 0.267061 0.26938 0.272009 0.274401 0.276137 0.277038 0.2457 0.255916
          0.261702 0.267051 0.271451 0.274288 0.275668 0.20795 0.233128 0.242576 0.255261 0.26604 0.271406 0.27373
          0.207863 0.20774 0.207825 0.224335 0.255781 0.267382 0.27148 0.239374 0.23427 0.234899 0.213607 0.244545
          0.26263 0.269543 0.248778 0.251696 0.252007 0.239804 0.215503 0.25498 0.269126 0.242937 0.259501 0.2638
          0.261267 0.256152 0.26912 0.274488 0.262246 0.269872 0.273117 0.273845 0.274462 0.27788 0.279869 0.274672
          0.277768 0.279744 0.280861 0.281847 0.283168 0.284 0.281935 0.283079 0.284159 0.285016 0.285766 0.286458
          0.286873 0.285863 0.286256 0.286845 0.287439 0.28798 0.288423 0.288676 0.287589 0.287731 0.288113 0.288569
          0.289005 0.289351 0.289544 0.2669 0.266578 0.267758 0.269588 0.271473 0.272956 0.27376 0.260943 0.262145
          0.264673 0.26747 0.270049 0.271975 0.272992 0.24184 0.251143 0.257637 0.262765 0.267015 0.269984 0.271492
          0.207804 0.231066 0.245224 0.254324 0.261893 0.266924 0.269368 0.224124 0.207716 0.228052 0.240916 0.253557
          0.262662 0.266878 0.235769 0.228216 0.230773 0.225707 0.238327 0.256667 0.264623 0.230398 0.239124 0.236874
          0.208038 0.208024 0.246849 0.264158 0.208319 0.242754 0.253819 0.245456 0.247454 0.2641 0.270637 0.242832
          0.260922 0.267072 0.26778 0.269908 0.274462 0.276869 0.26596 0.272473 0.275756 0.277365 0.278861 0.280553
          0.281554 0.277419 0.27956 0.281221 0.28241 0.283411 0.284273 0.284773 0.282866 0.283581 0.284441 0.285237
          0.285928 0.286473 0.286777 0.285105 0.285393 0.285938 0.286537 0.287084 0.287507 0.287739 0.263142 0.262309
          0.263219 0.265003 0.267062 0.268752 0.26968 0.257728 0.257863 0.260126 0.26291 0.265664 0.267793 0.268931
          0.240427 0.24668 0.2532 0.258359 0.262742 0.265884 0.267502 0.207781 0.227082 0.24156 0.250391 0.257995
          0.263087 0.265588 0.20762 0.207692 0.225435 0.235161 0.250528 0.259573 0.263628 0.224465 0.220253 0.221635
          0.207708 0.23762 0.25588 0.26255 0.207694 0.228007 0.231774 0.207914 0.237094 0.25662 0.26425 0.20765
          0.237984 0.249994 0.244684 0.257035 0.26569 0.269761 0.237607 0.256779 0.264101 0.266039 0.26997 0.273529
          0.275448 0.261684 0.269366 0.273333 0.275459 0.277396 0.279056 0.279992 0.274583 0.277187 0.27918 0.280617
          0.281794 0.282716 0.283227 0.280735 0.281616 0.282637 0.283566 0.284355 0.284953 0.285279 0.283235 0.283602
          0.284244 0.284934 0.285552 0.286019 0.286272 0.259891 0.25818 0.258355 0.259746 0.262168 0.264269 0.265422
          0.255833 0.253505 0.255138 0.257714 0.260875 0.263413 0.26477 0.246057 0.238252 0.247083 0.253065 0.258149
          0.261757 0.263587 0.229822 0.207637 0.230482 0.244563 0.253865 0.259553 0.262214 0.223332 0.207682 0.207638
          0.23054 0.248357 0.257527 0.261346 0.207666 0.205676 0.20762 0.20793 0.240535 0.256731 0.261927 0.207369
          0.226245 0.233935 0.235791 0.251772 0.260996 0.265072 0.224231 0.24306 0.252409 0.256059 0.262676 0.267554
          0.270032 0.240521 0.257374 0.264378 0.267796 0.271071 0.273647 0.275033 0.261907 0.268814 0.272686 0.275065
          0.276961 0.2784 0.279183 0.27392 0.276283 0.278227 0.279712 0.280897 0.281772 0.282243 0.27978 0.280586
          0.281585 0.282525 0.283322 0.283913 0.28423 0.282196 0.282532 0.283164 0.283858 0.284482 0.284951 0.285203
        </DataArray>
        <DataArray type="Float32" Name="process rank" NumberOfComponents="1" format="ascii">
          1 1 1 1 1 1 1 1 1 1 1 1
          1 1 1 1 1 1 1 1 1 1 1 1
          1 1 1 1 1 1 1 1 1 1 1 1
          1 1 1 1 1 1 1 1 1 1 1 1
          1 1 1 1 1 1 1 1 1 1 1 1
          1 1 1 1 1 1 1 1 1 1 1 1
          1 1 1 1 1 1 1 1 1 1 1 1
          1 1 1 1 1 1 1 1 1 1 1 1
          1 1 1 1 1 1 1 1 1 1 1 1
          1 1 1 1 1 1 1 1 1 1 1 1
          1 1 1 1 1 1 1 1 1 1 1 1
          1 1 1 1 1 1 1 1 1 1 1 1
          1 1 1 1 1 1 1 1 1 1 1 1
          1 1 1 1 1 1 1 1 1 1 1 1
          1 1 1 1 1 1 1 1 1 1 1 1
          1 1 1 1 1 1 1 1 1 1 1 1
          1 1 1 1 1 1 1 1 1 1 1 1
          1 1 1 1 1 1 1 1 1 1 1 1
          1 1 1 1 1 1 1 1 1 1 1 1
          1 1 1 1 1 1 1 1 1 1 1 1
          1 1 1 1 1 1 1 1 1 1 1 1
          1 1 1 1 1 1 1 1 1 1 1 1
          1 1 1 1 1 1 1 1 1 1 1 1
          1 1 1 1 1 1 1 1 1 1 1 1
          1 1 1 1 1 1 1 1 1 1 1 1
          1 1 1 1 1 1 1 1 1 1 1 1
          1 1 1 1 1 1 1 1 1 1 1 1
          1 1 1 1 1 1 1 1 1 1 1 1
          1 1 1 1 1 1 1 1 1 1 1 1
          1 1 1 1 1 1 1 1 1 1 1 1
          1 1 1 1 1 1 1 1 1 1 1 1
          1 1 1 1 1 1 1 1 1 1 1 1
          1 1 1 1 1 1 1 1 1 1 1 1
          1 1 1 1 1 1 1 1 1 1 1 1
          1 1 1 1 1 1 1 1 1 1 1 1
          1 1 1 1 1 1 1 1 1 1 1 1
          1 1 1 1 1 1 1 1 1 1 1 1
          1 1 1 1 1 1 1 1 1 1 1 1
          1 1 1 1 1 1 1 1 1 1 1 1
          1 1 1 1 1 1 1 1 1 1 1 1
          1 1 1 1 1 1 1 1 1 1 1 1
          1 1 1 1 1 1 1 1 1 1 1 1
          1 1 1 1 1 1 1 1 1 1 1 1
          1 1 1 1 1 1 1 1 1 1 1 1
          1 1 1 1 1 1 1 1 1 1 1 1
          1 1 1 1 1 1 1 1 1 1 1 1
          1 1 1 1 1 1 1 1 1 1 1 1
          1 1 1 1 1 1 1 1 1 1 1 1
          1 1 1 1 1 1 1 1 1 1 1 1
          1 1 1 1 1 1 1 1 1 1 1 1
          1 1 1 1 1 1 1 1 1 1 1 1
          1 1 1 1 1 1 1 1 1 1 1 1
          1 1 1 1 1 1 1 1 1 1 1 1
          1 1 1 1 1 1 1 1 1 1 1 1
          1 1 1 1 1 1 1 1 1 1 1 1
          1 1 1 1 1 1 1 1 1 1 1 1
          1 1 1 1 1 1 1 1 1 1 1 1
          1 1 1 1 1 1 1 1 1 1 1 1
          1 1 1 1 1 1 1 1 1 1 1 1
          1 1 1 1 1 1 1 1 1 1 1 1
          1 1 1 1 1 1 1 1 1 1 1 1
          1 1 1 1 1 1 1 1 1 1 1 1
          1 1 1 1 1 1 1 1 1 1 1 1
          1 1 1 1 1 1 1 1 1 1 1 1
          1 1 1 1 1 1 1 1 1 1 1 1
          1 1 1 1 1 1 1 1 1 1 1 1
          1 1 1 1 1 1 1 1 1 1 1 1
          1 1 1 1 1 1 1 1 1 1 1 1
          1 1 1 1 1 1 1 1 1 1 1 1
          1 1 1 1 1 1 1 1 1 1 1 1
          1 1 1 1 1 1 1 1 1 1 1 1
          1 1 1 1 1 1 1 1 1 1 1 1
          1 1 1 1 1 1 1 1 1 1 1 1
          1 1 1 1 1 1 1 1 1 1 1 1
          1 1 1 1 1 1 1 1 1 1 1 1
          1 1 1 1 1 1 1 1 1 1 1 1
          1 1 1 1 1 1 1 1 1 1 1 1
          1 1 1 1 1 1 1 1 1 1 1 1
          1 1 1 1 1 1 1 1 1 1 1 1
          1 1 1 1 1 1 1 1 1 1 1 1
          1 1 1 1 1 1 1 1 1 1 1 1
          1 1 1 1 1 1 1 1 1 1 1 1
          1 1 1 1 1 1 1 1 1 1 1 1
          1 1 1 1 1 1 1 1 1 1 1 1
          1 1 1 1 1 1 1 1 1 1 1 1
          1 1 1 1 1 1 1 1 1 1 1 1
          1 1 1 1 1 1 1 1 1 1 1 1
          1 1 1 1 1 1 1 1 1 1 1 1
          1 1 1 1 1 1 1 1 1 1 1 1
          1 1 1 1 1 1 1 1 1 1 1 1
          1 1 1 1 1 1 1 1 1 1 1 1
        </DataArray>
      </CellData>
      <Points>
        <DataArray type="Float32" Name="Coordinates" NumberOfComponents="3" format="ascii">
          -0.00307692 -0.04 -0.15 0.00307692 -0.04 -0.15 -0.00307692 -0.0338462 -0.15 0.00307692 -0.0338462 -0.15
          -0.00307692 -0.04 -0.144 0.00307692 -0.04 -0.144 -0.00307692 -0.0338462 -0.144 0.00307692 -0.0338462 -0.144
          0.00923077 -0.04 -0.15 0.00923077 -0.0338462 -0.15 0.00923077 -0.04 -0.144 0.00923077 -0.0338462 -0.144
          0.0153846 -0.04 -0.15 0.0153846 -0.0338462 -0.15 0.0153846 -0.04 -0.144 0.0153846 -0.0338462 -0.144
          0.0215385 -0.04 -0.15 0.0215385 -0.0338462 -0.15 0.0215385 -0.04 -0.144 0.0215385 -0.0338462 -0.144
          0.0276923 -0.04 -0.15 0.0276923 -0.0338462 -0.15 0.0276923 -0.04 -0.144 0.0276923 -0.0338462 -0.144
          0.0338462 -0.04 -0.15 0.0338462 -0.0338462 -0.15 0.0338462 -0.04 -0.144 0.0338462 -0.0338462 -0.144
          0.04 -0.04 -0.15 0.04 -0.0338462 -0.15 0.04 -0.04 -0.144 0.04 -0.0338462 -0.144
          -0.00307692 -0.0276923 -0.15 0.00307692 -0.0276923 -0.15 -0.00307692 -0.0276923 -0.144 0.00307692 -0.0276923 -0.144
          0.00923077 -0.0276923 -0.15 0.00923077 -0.0276923 -0.144 0.0153846 -0.0276923 -0.15 0.0153846 -0.0276923 -0.144
          0.0215385 -0.0276923 -0.15 0.0215385 -0.0276923 -0.144 0.0276923 -0.0276923 -0.15 0.0276923 -0.0276923 -0.144
          0.0338462 -0.0276923 -0.15 0.0338462 -0.0276923 -0.144 0.04 -0.0276923 -0.15 0.04 -0.0276923 -0.144
          -0.00307692 -0.0215385 -0.15 0.00307692 -0.0215385 -0.15 -0.00307692 -0.0215385 -0.144 0.00307692 -0.0215385 -0.144
          0.00923077 -0.0215385 -0.15 0.00923077 -0.0215385 -0.144 0.0153846 -0.0215385 -0.15 0.0153846 -0.0215385 -0.144
          0.0215385 -0.0215385 -0.15 0.0215385 -0.0215385 -0.144 0.0276923 -0.0215385 -0.15 0.0276923 -0.0215385 -0.144
          0.0338462 -0.0215385 -0.15 0.0338462 -0.0215385 -0.144 0.04 -0.0215385 -0.15 0.04 -0.0215385 -0.144
          -0.00307692 -0.0153846 -0.15 0.00307692 -0.0153846 -0.15 -0.00307692 -0.0153846 -0.144 0.00307692 -0.0153846 -0.144
          0.00923077 -0.0153846 -0.15 0.00923077 -0.0153846 -0.144 0.0153846 -0.0153846 -0.15 0.0153846 -0.0153846 -0.144
          0.0215385 -0.0153846 -0.15 0.0215385 -0.0153846 -0.144 0.0276923 -0.0153846 -0.15 0.0276923 -0.0153846 -0.144
          0.0338462 -0.0153846 -0.15 0.0338462 -0.0153846 -0.144 0.04 -0.0153846 -0.15 0.04 -0.0153846 -0.144
          -0.00307692 -0.00923077 -0.15 0.00307692 -0.00923077 -0.15 -0.00307692 -0.00923077 -0.144 0.00307692 -0.00923077 -0.144
          0.00923077 -0.00923077 -0.15 0.00923077 -0.00923077 -0.144 0.0153846 -0.00923077 -0.15 0.0153846 -0.00923077 -0.144
          0.0215385 -0.00923077 -0.15 0.0215385 -0.00923077 -0.144 0.0276923 -0.00923077 -0.15 0.0276923 -0.00923077 -0.144
          0.0338462 -0.00923077 -0.15 0.0338462 -0.00923077 -0.144 0.04 -0.00923077 -0.15 0.04 -0.00923077 -0.144
          -0.00307692 -0.00307692 -0.15 0.00307692 -0.00307692 -0.15 -0.00307692 -0.00307692 -0.144 0.00307692 -0.00307692 -0.144
          0.00923077 -0.00307692 -0.15 0.00923077 -0.00307692 -0.144 0.0153846 -0.00307692 -0.15 0.0153846 -0.00307692 -0.144
          0.0215385 -0.00307692 -0.15 0.0215385 -0.00307692 -0.144 0.0276923 -0.00307692 -0.15 0.0276923 -0.00307692 -0.144
          0.0338462 -0.00307692 -0.15 0.0338462 -0.00307692 -0.144 0.04 -0.00307692 -0.15 0.04 -0.00307692 -0.144
          -0.00307692 0.00307692 -0.15 0.00307692 0.00307692 -0.15 -0.00307692 0.00307692 -0.144 0.00307692 0.00307692 -0.144
          0.00923077 0.00307692 -0.15 0.00923077 0.00307692 -0.144 0.0153846 0.00307692 -0.15 0.0153846 0.00307692 -0.144
          0.0215385 0.00307692 -0.15 0.0215385 0.00307692 -0.144 0.0276923 0.00307692 -0.15 0.0276923 0.00307692 -0.144
          0.0338462 0.00307692 -0.15 0.0338462 0.00307692 -0.144 0.04 0.00307692 -0.15 0.04 0.00307692 -0.144
          -0.00307692 0.00923077 -0.15 0.00307692 0.00923077 -0.15 -0.00307692 0.00923077 -0.144 0.00307692 0.00923077 -0.144
          0.00923077 0.00923077 -0.15 0.00923077 0.00923077 -0.144 0.0153846 0.00923077 -0.15 0.0153846 0.00923077 -0.144
          0.0215385 0.00923077 -0.15 0.0215385 0.00923077 -0.144 0.0276923 0.00923077 -0.15 0.0276923 0.00923077 -0.144
          0.0338462 0.00923077 -0.15 0.0338462 0.00923077 -0.144 0.04 0.00923077 -0.15 0.04 0.00923077 -0.144
          -0.00307692 0.0153846 -0.15 0.00307692 0.0153846 -0.15 -0.00307692 0.0153846 -0.144 0.00307692 0.0153846 -0.144
          0.00923077 0.0153846 -0.15 0.00923077 0.0153846 -0.144 0.0153846 0.0153846 -0.15 0.0153846 0.0153846 -0.144
          0.0215385 0.0153846 -0.15 0.0215385 0.0153846 -0.144 0.0276923 0.0153846 -0.15 0.0276923 0.0153846 -0.144
          0.0338462 0.0153846 -0.15 0.0338462 0.0153846 -0.144 0.04 0.0153846 -0.15 0.04 0.0153846 -0.144
          -0.00307692 0.0215385 -0.15 0.00307692 0.0215385 -0.15 -0.00307692 0.0215385 -0.144 0.00307692 0.0215385 -0.144
          0.00923077 0.0215385 -0.15 0.00923077 0.0215385 -0.144 0.0153846 0.0215385 -0.15 0.0153846 0.0215385 -0.144
          0.0215385 0.0215385 -0.15 0.0215385 0.0215385 -0.144 0.0276923 0.0215385 -0.15 0.0276923 0.0215385 -0.144
          0.0338462 0.0215385 -0.15 0.0338462 0.0215385 -0.144 0.04 0.0215385 -0.15 0.04 0.0215385 -0.144
          -0.00307692 0.0276923 -0.15 0.00307692 0.0276923 -0.15 -0.00307692 0.0276923 -0.144 0.00307692 0.0276923 -0.144
          0.00923077 0.0276923 -0.15 0.00923077 0.0276923 -0.144 0.0153846 0.0276923 -0.15 0.0153846 0.0276923 -0.144
          0.0215385 0.0276923 -0.15 0.0215385 0.0276923 -0.144 0.0276923 0.0276923 -0.15 0.0276923 0.0276923 -0.144
          0.0338462 0.0276923 -0.15 0.0338462 0.0276923 -0.144 0.04 0.0276923 -0.15 0.04 0.0276923 -0.144
          -0.00307692 0.0338462 -0.15 0.00307692 0.0338462 -0.15 -0.00307692 0.0338462 -0.144 0.00307692 0.0338462 -0.144
          0.00923077 0.0338462 -0.15 0.00923077 0.0338462 -0.144 0.0153846 0.0338462 -0.15 0.0153846 0.0338462 -0.144