<?xml version="1.0"?>
<VTKFile type="UnstructuredGrid" version="0.1" byte_order="LittleEndian">
  <UnstructuredGrid>
    <Piece NumberOfCells="936" NumberOfPoints="1274">
      <CellData Scalars="p (Pa)">
        <DataArray type="Float32" Name="p (Pa)" NumberOfComponents="1" format="ascii">
          35425.2 35275.9 34992.1 34603.4 34154.2 33699.8 35463.5 35312.2 35024.1 34628.7 34170.5 33706
          35545.7 35391.6 35097.5 34692.6 34221.2 33741.4 35679.9 35524.4 35227 34816.2 34336 33845.1
          35872.4 35718.7 35424.8 35018.4 34542.8 34056 36123 35975.4 35693.8 35305.4 34852.4 34390.6
          36422.1 36284.8 36023.4 35664.8 35249.6 34829.4 36751.8 36627.4 36391.4 36069.8 35700.4 35329.4
          37087.3 36976.7 36767.9 36485 36162.3 35839.9 37400.5 37303.1 37119.8 36872.6 36591.9 36312
          37663.9 37577.6 37415.4 37197.4 36950.3 36703.8 37853.8 37775.4 37628.2 37430.6 37206.8 36982.8
          37953.3 37878.9 37739.5 37552.3 37340.2 37127.7 34950.4 34783 34463.9 34025.6 33517.9 33005.6
          34986 34815.4 34489.6 34040.3 33517.4 32987.1 35064.5 34889.4 34553.6 34087.8 33541.3 32982.1
          35196.7 35018.4 34675.6 34197.6 33632 33047.4 35391.4 35214.3 34873.4 34397.3 33832.4 33245.6
          35649.7 35479.4 35152.4 34697.4 34160.7 33607.6 35962.8 35804.4 35501.7 35083.8 34596.6 34101.9
          36311.3 36168.4 35896.7 35525.1 35097.4 34669.6 36668.7 36542.7 36304.4 35981.2 35613.3 35249.3
          37004.3 36894.4 36687.6 36408.9 36094.2 35784.2 37287.7 37191.3 37010.6 36768.2 36495.5 36226.9
          37492.5 37405.8 37243.6 37026.4 36782.4 36541.4 37599.8 37518.2 37365.4 37161.2 36931.5 36704.3
          34048.5 33842.2 33447.1 32900.6 32263.8 31622 34078.1 33865.9 33457.9 32889.5 32221.1 31540.2
          34148 33926.9 33499 32896.5 32176.3 31427.5 34274.9 34046.6 33602.5 32970.8 32203.1 31385
          34473 34244.2 33798.2 33161.6 32382.7 31541.5 34747.1 34526.3 34097.4 33489.3 32753.6 31972.9
          35088.4 34883.3 34487.6 33933.7 33277.6 32603.4 35476 35292 34939.6 34453.4 33890.2 33329.5
          35879.4 35718.9 35414.1 34999.2 34527.8 34068.9 36262.3 36124.7 35865.3 35516.1 35124.6 34747.8
          36587.9 36469.7 36248 35951.9 35622.4 35305.9 36824.3 36719.9 36524.7 36265.2 35977.2 35699.8
          36948.4 36851.1 36669.6 36428.7 36161.3 35903 32701 32430.2 31906.9 31174.6 30311.6 29439.1
          32719.6 32437.4 31888.7 31111.8 30180.7 29219.4 32773.5 32473.8 31884.9 31035.4 29987.1 28860.1
          32889.4 32574.5 31950.3 31034 29868.1 28549.5 33091 32771.8 32137.6 31201.2 29993.9 28584.5
          33388.3 33078.9 32467.3 31574 30446.2 29179 33773.4 33485.7 32922.2 32114.5 31130.3 30092.3
          34222.9 33965.5 33466.4 32765.3 31940.1 31119.7 34700.5 34478.6 34053.2 33467.7 32799.7 32163.1
          35160.7 34974.2 34620.8 34143.1 33610.6 33113.9 35555.6 35399.5 35106.2 34715 34285 33885.9
          35843.7 35709.2 35458 35125.7 34762.5 34424.2 35995.4 35871.9 35642.2 35339.3 35008.8 34699.4
          30885.8 30517.1 29796.6 28770.7 27539.7 26283.8 30886 30496.1 29726.2 28609.5 27231.9 25775.4
          30912.8 30489.4 29639.8 28370.1 26726.5 24861.8 31008.5 30555 29632.7 28215.8 26285.2 23881.4
          31211.8 30747.2 29799.6 28332.8 26291 23577.2 31539.7 31086.7 30169.6 28774.5 26902.2 24599.6
          31985.2 31561.5 30713.1 29453.5 27848.7 26082.4 32522.6 32142.5 31389.9 30297.3 28965.1 27630.2
          33108.8 32784.2 32151 31257.7 30218.8 29249.6 33684 33417.1 32905.3 32203.6 31418.6 30713.1
          34182.7 33965.7 33555.7 33006.2 32406.4 31872.8 34548.3 34366.7 34027.2 33578.7 33095.1 32662.7
          34741 34577.5 34273.4 33874.5 33446 33060.3 28583.3 28075.3 27067.5 25598.7 23790.1 21917
          28555 28008.5 26907.3 25256.1 23133.3 20811.4 28539.2 27930.8 26675.1 24703.6 21970.1 18628.6
          28601.9 27937.2 26537.8 24247.3 20802 15877.9 28803.7 28116.8 26668.4 24286.1 20614.9 14742
          29169.6 28495 27088 24833.1 21561.9 17034.3 29692.8 29054.3 27735 25671.6 22858.2 19566
          30347.5 29768.5 28581.3 26752 24338.8 21795.9 31084.7 30593.2 29605.2 28142.6 26349 24678.4
          31823.1 31428.3 30654.7 29560.4 28304.9 27213.8 32469.6 32159.1 31564.6 30754.9 29866.8 29111.6
          32945.1 32693.8 32220.8 31592.6 30920.1 30345.5 33195.9 32974.5 32561.5 32019.7 31444.9 30949.1
          25785.9 25091.4 23688.5 21583 18897.7 16054.1 25716.9 24955.8 23382.6 20918 17558.7 13704.7
          25639.6 24769.2 22904.9 19768.9 14946.8 8363.46 25654.5 24683.7 22543.3 18702.6 11939.5 -182.891
          25853.2 24845.3 22633.6 18712.9 11870.3 -1842.79 26266.5 25269 23111.9 19430.5 13579.7 4414.81
          26885.9 25922.7 23845.6 20339.4 15007.4 8084.38 27690.5 26799 24869 21565.5 16357.9 9353.65
          28629.6 27875.9 26287.4 23728.4 20191.2 16583.5 29590.6 29000.2 27802.7 26011.1 23817.8 21905.2
          30438.8 29990.8 29114.1 27881 26491.2 25348.8 31062.9 30713.2 30047 29148.6 28182.1 27391.5
          31391.6 31090.7 30525.7 29779.8 28992.6 28341.9 22508.4 21583.7 19681.2 16731.7 12798.9 8478.74
          22386.9 21355.5 19164.2 15544.3 10187.1 3488.04 22230.8 21019.5 18308.2 13301.2 4187.5 -11540.5
          22186.7 20807 17578.8 10905.9 -5102.43 -56847.3 22388.8 20956.4 17670.6 11300.9 -1605.79 -32264.7
          22866.9 21437.5 18221.1 12320.4 1910.86 -16063.3 23606.9 22189.7 18964.8 12911.8 1897.72 -16201.4
          24597.8 23247.5 20092.3 13681 -919.147 -43651 25796.3 24657.6 22094.8 17391.6 9256.15 -2262.68
          27046 26176.7 24328 21315.1 17137.6 13071.8 28153.8 27517.9 26235 24337 22064.5 20180.6
          28966.8 28488.3 27560.5 26276.1 24862.9 23739.8 29393.3 28991.5 28229 27208.8 26126.7 25264
          18790.6 17611 15154.7 11253.4 5828.66 -474.682 18610 17279.2 14398.5 9430.33 1386.63 -10447.7
          18368 16776 13089 5617.19 -11622.9 -63724 18269 16423.7 11858.2 443.815 -50887.2 -691334
          18499.8 16584.1 12027 2331.79 -22324.2 -117430 19082.8 17151.6 12655.8 3809.32 -13886.1 -50920.9
          19989.2 18024.1 13308.1 3332.37 -19930.5 -84394.9 21215.6 19285.9 14371.5 1739.55 -53664.8 -730404
          22730.2 21099.2 17138.5 8513.07 -12724.6 -74080.4 24327 23108.9 20372.1 15390.2 6987.41 -4248.28
          25741.3 24879 23076.4 20229.7 16467.7 13027.9 26772.9 26145.2 24902.2 23120.9 21077.4 19446.9
          27311.2 26795.5 25804.1 24452.9 22997.4 21862.6 14684 13245.8 10261.1 5545.9 -990.695 -8723.92
          14440.1 12817.1 9339.95 3483.31 -5602.42 -18372.4 14116.6 12176.9 7794.77 -485.006 -16523.3 -49714.6
          13993.2 11748 6427.2 -4899.26 -34014.9 -142528 14313.9 11951.1 6407.81 -4840.58 -29669.3 -94811.1
          15093.5 12682.1 7028.03 -4216.83 -26940.8 -74315.7 16268 13788.6 7719.16 -5604.39 -38414.5 -138318
          17814.5 15352 8882.3 -8759.44 -89540.3 -926004 19692.3 17576.6 12111.2 -2078.01 -60984.9 -686787
          21663.9 20101.5 16418.7 8918.09 -7501.07 -49811.3 23396.8 22315.5 19983.7 16057.8 10199.7 3502.37
          24649.9 23880.9 22330 20031.8 17259.6 14944.2 25299.6 24677.5 23468 21789.4 19945 18513.1
          10233.3 8509.65 4975.93 -477.653 -7836.1 -16599.2 9899.37 7939.33 3822.25 -2810.58 -12432.9 -25675
          9466.06 7096.52 1897.59 -7187.2 -22440.5 -51979.2 9347.53 6588.79 255.657 -11922 -37028 -126917
          9901.64 7037.09 423.733 -12473 -40199.9 -139137 11077.9 8215.36 1526.92 -11709.9 -38964.8 -104820
          12711.1 9836.51 2828.06 -12321.9 -48418.7 -164703 14712.5 11912.1 4670.58 -13400.6 -69025.6 -272314
          17004.7 14588.7 8264.06 -8755.46 -84645.2 -910397 19338.8 17562.2 13311.7 4366.7 -16457.1 -74244.1
          21352.6 20133.1 17473.5 12893.3 5788.64 -2798.61 22791.6 21931.3 20183.1 17557.2 14326 11580.4
          23532.6 22840.2 21486.9 19592.8 17490.9 15857.4 5522.86 3424.96 -821.245 -7152.73 -15202.5 -24606
          5026.81 2559.73 -2560.44 -10382.8 -20274.8 -32872 4378.66 1228.75 -5697.83 -17067.4 -31003 -52892.4
          4257.55 459.118 -8577.29 -25736.4 -45307 -88439.3 5307.25 1655.71 -6820.88 -22647.4 -49315.3 -112844
          7213.72 3860.19 -3971.65 -19419.4 -52187.7 -160927 9571.59 6419.49 -1257.74 -18086.5 -60862.1 -212913
          12183 9247.16 1633.88 -18570.2 -106296 -931971 14936.7 12483.4 6156.45 -10453.3 -82724.5 -893791
          17585.8 15799.5 11585.4 2934.17 -16545 -69707.8 19801.5 18573.3 15920.2 11427.4 4616.55 -3456.59
          21360.1 20488 18725.3 16101.4 12907.6 10199.7 22156.8 21450.8 20074.9 18157.1 16036.1 14378.3
        </DataArray>
        <DataArray type="Float32" Name="saturation" NumberOfComponents="1" format="ascii">
          0.300192 0.300035 0.299738 0.299334 0.298872 0.29841 0.300233 0.300073 0.299771 0.29936 0.298889 0.298416
          0.30032 0.300157 0.299848 0.299426 0.298941 0.298452 0.300462 0.300297 0.299984 0.299555 0.299058 0.298557
          0.300667 0.300503 0.300192 0.299765 0.299272 0.298772 0.300935 0.300777 0.300477 0.300066 0.299592 0.299115
          0.301257 0.301109 0.300828 0.300446 0.300008 0.299568 0.301615 0.30148 0.301224 0.300878 0.300484 0.300091
          0.301983 0.301861 0.301633 0.301325 0.300977 0.300632 0.302328 0.30222 0.302018 0.301747 0.301441 0.301138
          0.302621 0.302525 0.302345 0.302104 0.301832 0.301563 0.302834 0.302746 0.302581 0.302362 0.302114 0.301868
          0.302945 0.302862 0.302706 0.302497 0.302262 0.302027 0.299694 0.29952 0.29919 0.298741 0.298226 0.297713
          0.299732 0.299554 0.299217 0.298756 0.298226 0.297695 0.299814 0.299631 0.299283 0.298804 0.29825 0.29769
          0.299952 0.299765 0.299409 0.298917 0.298341 0.297755 0.300157 0.29997 0.299614 0.299122 0.298544 0.297953
          0.30043 0.30025 0.299906 0.299431 0.298879 0.298317 0.300763 0.300594 0.300273 0.299834 0.299327 0.298819
          0.301138 0.300984 0.300693 0.300298 0.299848 0.299403 0.301525 0.301388 0.30113 0.300783 0.300391 0.300007
          0.301891 0.301771 0.301545 0.301243 0.300904 0.300573 0.302203 0.302097 0.301898 0.301633 0.301337 0.301047
          0.30243 0.302334 0.302155 0.301916 0.301648 0.301386 0.30255 0.302459 0.302289 0.302064 0.301812 0.301563
          0.298764 0.298554 0.298155 0.297609 0.296982 0.296359 0.298794 0.298578 0.298166 0.297598 0.29694 0.29628
          0.298866 0.29864 0.298207 0.297605 0.296896 0.296172 0.298996 0.298762 0.298312 0.297679 0.296922 0.296131
          0.2992 0.298964 0.29851 0.297869 0.297098 0.296281 0.299483 0.299254 0.298814 0.298198 0.297463 0.296698
          0.299839 0.299625 0.299215 0.298647 0.297985 0.297315 0.300246 0.300052 0.299683 0.299179 0.298603 0.298037
          0.300674 0.300503 0.300181 0.299745 0.299256 0.298785 0.301085 0.300937 0.300659 0.300288 0.299876 0.299484
          0.301437 0.301309 0.301069 0.300752 0.300401 0.300067 0.301694 0.30158 0.301368 0.301088 0.300779 0.300483
          0.30183 0.301724 0.301526 0.301264 0.300976 0.300699 0.297411 0.297145 0.296634 0.29593 0.295115 0.294308
          0.29743 0.297152 0.296617 0.29587 0.294993 0.294107 0.297483 0.297188 0.296613 0.295798 0.294813 0.293781
          0.297598 0.297287 0.296676 0.295796 0.294703 0.293501 0.297799 0.297481 0.296858 0.295955 0.29482 0.293532
          0.298096 0.297786 0.297181 0.296313 0.295241 0.29407 0.298485 0.298194 0.29763 0.296836 0.295888 0.294911
          0.298943 0.29868 0.298175 0.297475 0.296666 0.295878 0.299435 0.299205 0.298769 0.298176 0.297509 0.296883
          0.299914 0.299719 0.299352 0.298861 0.29832 0.297821 0.30033 0.300165 0.299857 0.29945 0.299006 0.298599
          0.300636 0.300493 0.300227 0.299878 0.299499 0.299149 0.300798 0.300666 0.300422 0.300102 0.299755 0.299434
          0.295656 0.295308 0.294637 0.2937 0.292604 0.291516 0.295656 0.295288 0.294572 0.293555 0.292334 0.291083
          0.295681 0.295282 0.294492 0.29334 0.291896 0.290319 0.295772 0.295344 0.294486 0.293202 0.291517 0.289514
          0.295966 0.295525 0.29464 0.293307 0.291522 0.289268 0.29628 0.295846 0.294983 0.293704 0.292048 0.290102
          0.29671 0.296301 0.295492 0.294321 0.292876 0.291344 0.297235 0.296863 0.296136 0.295102 0.293876 0.292683
          0.297816 0.297494 0.296872 0.296009 0.295029 0.294135 0.298394 0.298125 0.297614 0.296923 0.296163 0.295492
          0.298901 0.29868 0.298264 0.297714 0.297121 0.296601 0.299277 0.29909 0.298742 0.298288 0.297803 0.297374
          0.299477 0.299307 0.298994 0.298587 0.298154 0.297768 0.293531 0.293077 0.292191 0.290934 0.28944 0.28795
          0.293506 0.293018 0.292052 0.290647 0.288911 0.287098 0.293492 0.292949 0.291852 0.290188 0.287992 0.285469
          0.293548 0.292955 0.291733 0.289812 0.287091 0.283512 0.29373 0.293114 0.291846 0.289844 0.286948 0.282733
          0.294062 0.293452 0.292209 0.290295 0.287674 0.284322 0.294541 0.293957 0.292776 0.290996 0.288692 0.28616
          0.295149 0.294611 0.29353 0.291918 0.289887 0.287856 0.295845 0.29538 0.294461 0.293137 0.291571 0.290167
          0.296553 0.296173 0.295437 0.294419 0.293282 0.292319 0.297183 0.296879 0.296304 0.295532 0.294702 0.294009
          0.297653 0.297404 0.29694 0.296331 0.295688 0.295147 0.297903 0.297682 0.297274 0.296744 0.296189 0.295716
          0.291092 0.290509 0.289358 0.287691 0.285666 0.283634 0.291034 0.290397 0.289111 0.287179 0.284695 0.282037
          0.290969 0.290242 0.288729 0.286311 0.282873 0.27865 0.290981 0.290171 0.288442 0.285523 0.280881 0.273839
          0.291149 0.290305 0.288513 0.28553 0.280837 0.27298 0.291501 0.290658 0.288894 0.286059 0.281954 0.276342
          0.292034 0.291208 0.289485 0.286739 0.282914 0.278482 0.292737 0.291958 0.290325 0.287677 0.283846 0.279254
          0.293573 0.2929 0.291519 0.28939 0.286628 0.284004 0.294447 0.293908 0.292836 0.291283 0.289462 0.287941
          0.295235 0.294817 0.294011 0.292905 0.291693 0.290724 0.295824 0.295493 0.294869 0.294043 0.293172 0.292474
          0.296137 0.29585 0.295316 0.294621 0.293901 0.293315 0.288415 0.287691 0.286245 0.284108 0.281439 0.27872
          0.288319 0.287515 0.285862 0.283282 0.27977 0.275822 0.288196 0.287257 0.285235 0.281769 0.276214 0.268374
          0.288161 0.287094 0.28471 0.280222 0.271356 0.253169 0.28832 0.287208 0.284775 0.280472 0.273101 0.260387
          0.288699 0.287578 0.285172 0.281128 0.274956 0.266438 0.289292 0.288164 0.285715 0.281513 0.274949 0.26638
          0.2901 0.289003 0.286553 0.282021 0.273455 0.256798 0.291101 0.29015 0.288089 0.284576 0.279194 0.272766
          0.292173 0.291424 0.289878 0.287484 0.284395 0.281618 0.293147 0.292585 0.291474 0.289886 0.288066 0.28662
          0.293878 0.293446 0.292622 0.291509 0.29032 0.289399 0.294266 0.2939 0.293214 0.292314 0.291382 0.290653
          0.285587 0.284733 0.283014 0.280442 0.277151 0.273687 0.285455 0.284496 0.282501 0.279301 0.274673 0.26886
          0.285279 0.284139 0.28163 0.277029 0.268337 0.251465 0.285207 0.283892 0.280829 0.27417 0.254745 0.211476
          0.285375 0.284004 0.280938 0.275185 0.263948 0.241235 0.285802 0.284405 0.281346 0.276002 0.267354 0.254736
          0.286476 0.28503 0.281774 0.275736 0.264875 0.246966 0.287407 0.285952 0.282483 0.274863 0.253999 0.210751
          0.28859 0.287318 0.284396 0.278741 0.267855 0.249104 0.289878 0.288892 0.286764 0.283176 0.277828 0.271774
          0.291055 0.290333 0.288866 0.286657 0.283923 0.281589 0.291936 0.291397 0.290352 0.288901 0.287301 0.286071
          0.292404 0.291955 0.291108 0.289981 0.288803 0.287908 0.282694 0.281733 0.279817 0.276988 0.273418 0.269644
          0.282529 0.281451 0.279245 0.27582 0.271114 0.265495 0.282312 0.281035 0.278308 0.273681 0.266247 0.255067
          0.282229 0.280758 0.277499 0.271455 0.259804 0.237736 0.282444 0.280889 0.277488 0.271484 0.261274 0.244992
          0.282973 0.281363 0.277852 0.27179 0.262239 0.249053 0.283783 0.282093 0.278263 0.271113 0.25839 0.238282
          0.284879 0.283149 0.278965 0.269628 0.245969 0.207807 0.286254 0.284708 0.280992 0.27286 0.25213 0.211564
          0.287754 0.28656 0.283888 0.278987 0.270212 0.255041 0.289122 0.288263 0.286472 0.283637 0.279778 0.27583
          0.290143 0.289514 0.288274 0.286508 0.284482 0.282871 0.290683 0.290166 0.28918 0.287851 0.286443 0.285384
          0.279799 0.278739 0.276661 0.273685 0.270055 0.266216 0.279591 0.278395 0.276009 0.27249 0.267982 0.262697
          0.279323 0.277893 0.274949 0.270359 0.263904 0.254449 0.27925 0.277594 0.27407 0.268206 0.258828 0.23984
          0.279593 0.277858 0.274159 0.267964 0.257837 0.238174 0.280331 0.278561 0.274748 0.268299 0.258218 0.243248
          0.281382 0.279552 0.275457 0.26803 0.255428 0.235094 0.282713 0.280864 0.276487 0.267563 0.250228 0.226019
          0.284301 0.28263 0.27859 0.269629 0.246916 0.208008 0.285991 0.284698 0.281776 0.276315 0.266275 0.249069
          0.287513 0.286584 0.284634 0.281501 0.277128 0.272496 0.288639 0.287962 0.286622 0.284694 0.282452 0.280651
          0.289232 0.288677 0.287616 0.286179 0.284647 0.283498 0.276974 0.275787 0.273506 0.270376 0.266797 0.26309
          0.27669 0.27531 0.272616 0.26889 0.26474 0.260183 0.276322 0.274588 0.271068 0.266024 0.260815 0.254204
          0.276253 0.274178 0.269711 0.262675 0.256314 0.246178 0.27685 0.274818 0.270532 0.263825 0.255178 0.241945
          0.277962 0.27603 0.27191 0.265077 0.254393 0.235519 0.279388 0.277495 0.27328 0.26561 0.25216 0.230412
          0.281039 0.279188 0.274806 0.265416 0.243002 0.207731 0.282866 0.281233 0.277341 0.268858 0.247299 0.208227
          0.284715 0.283458 0.280654 0.275516 0.266239 0.250073 0.286335 0.285428 0.283541 0.280553 0.276456 0.272166
          0.287519 0.286852 0.285539 0.283667 0.28151 0.279778 0.288138 0.287589 0.28654 0.285126 0.283622 0.282488
        </DataArray>
        <DataArray type="Float32" Name="process rank" NumberOfComponents="1" format="ascii">
          0 0 0 0 0 0 0 0 0 0 0 0
          0 0 0 0 0 0 0 0 0 0 0 0
          0 0 0 0 0 0 0 0 0 0 0 0
          0 0 0 0 0 0 0 0 0 0 0 0
          0 0 0 0 0 0 0 0 0 0 0 0
          0 0 0 0 0 0 0 0 0 0 0 0
          0 0 0 0 0 0 0 0 0 0 0 0
          0 0 0 0 0 0 0 0 0 0 0 0
          0 0 0 0 0 0 0 0 0 0 0 0
          0 0 0 0 0 0 0 0 0 0 0 0
          0 0 0 0 0 0 0 0 0 0 0 0
          0 0 0 0 0 0 0 0 0 0 0 0
          0 0 0 0 0 0 0 0 0 0 0 0
          0 0 0 0 0 0 0 0 0 0 0 0
          0 0 0 0 0 0 0 0 0 0 0 0
          0 0 0 0 0 0 0 0 0 0 0 0
          0 0 0 0 0 0 0 0 0 0 0 0
          0 0 0 0 0 0 0 0 0 0 0 0
          0 0 0 0 0 0 0 0 0 0 0 0
          0 0 0 0 0 0 0 0 0 0 0 0
          0 0 0 0 0 0 0 0 0 0 0 0
          0 0 0 0 0 0 0 0 0 0 0 0
          0 0 0 0 0 0 0 0 0 0 0 0
          0 0 0 0 0 0 0 0 0 0 0 0
          0 0 0 0 0 0 0 0 0 0 0 0
          0 0 0 0 0 0 0 0 0 0 0 0
          0 0 0 0 0 0 0 0 0 0 0 0
          0 0 0 0 0 0 0 0 0 0 0 0
          0 0 0 0 0 0 0 0 0 0 0 0
          0 0 0 0 0 0 0 0 0 0 0 0
          0 0 0 0 0 0 0 0 0 0 0 0
          0 0 0 0 0 0 0 0 0 0 0 0
          0 0 0 0 0 0 0 0 0 0 0 0
          0 0 0 0 0 0 0 0 0 0 0 0
          0 0 0 0 0 0 0 0 0 0 0 0
          0 0 0 0 0 0 0 0 0 0 0 0
          0 0 0 0 0 0 0 0 0 0 0 0
          0 0 0 0 0 0 0 0 0 0 0 0
          0 0 0 0 0 0 0 0 0 0 0 0
          0 0 0 0 0 0 0 0 0 0 0 0
          0 0 0 0 0 0 0 0 0 0 0 0
          0 0 0 0 0 0 0 0 0 0 0 0
          0 0 0 0 0 0 0 0 0 0 0 0
          0 0 0 0 0 0 0 0 0 0 0 0
          0 0 0 0 0 0 0 0 0 0 0 0
          0 0 0 0 0 0 0 0 0 0 0 0
          0 0 0 0 0 0 0 0 0 0 0 0
          0 0 0 0 0 0 0 0 0 0 0 0
          0 0 0 0 0 0 0 0 0 0 0 0
          0 0 0 0 0 0 0 0 0 0 0 0
          0 0 0 0 0 0 0 0 0 0 0 0
          0 0 0 0 0 0 0 0 0 0 0 0
          0 0 0 0 0 0 0 0 0 0 0 0
          0 0 0 0 0 0 0 0 0 0 0 0
          0 0 0 0 0 0 0 0 0 0 0 0
          0 0 0 0 0 0 0 0 0 0 0 0
          0 0 0 0 0 0 0 0 0 0 0 0
          0 0 0 0 0 0 0 0 0 0 0 0
          0 0 0 0 0 0 0 0 0 0 0 0
          0 0 0 0 0 0 0 0 0 0 0 0
          0 0 0 0 0 0 0 0 0 0 0 0
          0 0 0 0 0 0 0 0 0 0 0 0
          0 0 0 0 0 0 0 0 0 0 0 0
          0 0 0 0 0 0 0 0 0 0 0 0
          0 0 0 0 0 0 0 0 0 0 0 0
          0 0 0 0 0 0 0 0 0 0 0 0
          0 0 0 0 0 0 0 0 0 0 0 0
          0 0 0 0 0 0 0 0 0 0 0 0
          0 0 0 0 0 0 0 0 0 0 0 0
          0 0 0 0 0 0 0 0 0 0 0 0
          0 0 0 0 0 0 0 0 0 0 0 0
          0 0 0 0 0 0 0 0 0 0 0 0
          0 0 0 0 0 0 0 0 0 0 0 0
          0 0 0 0 0 0 0 0 0 0 0 0
          0 0 0 0 0 0 0 0 0 0 0 0
          0 0 0 0 0 0 0 0 0 0 0 0
          0 0 0 0 0 0 0 0 0 0 0 0
          0 0 0 0 0 0 0 0 0 0 0 0
        </DataArray>
      </CellData>
      <Points>
        <DataArray type="Float32" Name="Coordinates" NumberOfComponents="3" format="ascii">
          -0.04 -0.04 -0.15 -0.0338462 -0.04 -0.15 -0.04 -0.0338462 -0.15 -0.0338462 -0.0338462 -0.15
          -0.04 -0.04 -0.144 -0.0338462 -0.04 -0.144 -0.04 -0.0338462 -0.144 -0.0338462 -0.0338462 -0.144
          -0.0276923 -0.04 -0.15 -0.0276923 -0.0338462 -0.15 -0.0276923 -0.04 -0.144 -0.0276923 -0.0338462 -0.144
          -0.0215385 -0.04 -0.15 -0.0215385 -0.0338462 -0.15 -0.0215385 -0.04 -0.144 -0.0215385 -0.0338462 -0.144
          -0.0153846 -0.04 -0.15 -0.0153846 -0.0338462 -0.15 -0.0153846 -0.04 -0.144 -0.0153846 -0.0338462 -0.144
          -0.00923077 -0.04 -0.15 -0.00923077 -0.0338462 -0.15 -0.00923077 -0.04 -0.144 -0.00923077 -0.0338462 -0.144
          -0.00307692 -0.04 -0.15 -0.00307692 -0.0338462 -0.15 -0.00307692 -0.04 -0.144 -0.00307692 -0.0338462 -0.144
          -0.04 -0.0276923 -0.15 -0.0338462 -0.0276923 -0.15 -0.04 -0.0276923 -0.144 -0.0338462 -0.0276923 -0.144
          -0.0276923 -0.0276923 -0.15 -0.0276923 -0.0276923 -0.144 -0.0215385 -0.0276923 -0.15 -0.0215385 -0.0276923 -0.144
          -0.0153846 -0.0276923 -0.15 -0.0153846 -0.0276923 -0.144 -0.00923077 -0.0276923 -0.15 -0.00923077 -0.0276923 -0.144
          -0.00307692 -0.0276923 -0.15 -0.00307692 -0.0276923 -0.144 -0.04 -0.0215385 -0.15 -0.0338462 -0.0215385 -0.15
          -0.04 -0.0215385 -0.144 -0.0338462 -0.0215385 -0.144 -0.0276923 -0.0215385 -0.15 -0.0276923 -0.0215385 -0.144
          -0.0215385 -0.0215385 -0.15 -0.0215385 -0.0215385 -0.144 -0.0153846 -0.0215385 -0.15 -0.0153846 -0.0215385 -0.144
          -0.00923077 -0.0215385 -0.15 -0.00923077 -0.0215385 -0.144 -0.00307692 -0.0215385 -0.15 -0.00307692 -0.0215385 -0.144
          -0.04 -0.0153846 -0.15 -0.0338462 -0.0153846 -0.15 -0.04 -0.0153846 -0.144 -0.0338462 -0.0153846 -0.144
          -0.0276923 -0.0153846 -0.15 -0.0276923 -0.0153846 -0.144 -0.0215385 -0.0153846 -0.15 -0.0215385 -0.0153846 -0.144
          -0.0153846 -0.0153846 -0.15 -0.0153846 -0.0153846 -0.144 -0.00923077 -0.0153846 -0.15 -0.00923077 -0.0153846 -0.144
          -0.00307692 -0.0153846 -0.15 -0.00307692 -0.0153846 -0.144 -0.04 -0.00923077 -0.15 -0.0338462 -0.00923077 -0.15
          -0.04 -0.00923077 -0.144 -0.0338462 -0.00923077 -0.144 -0.0276923 -0.00923077 -0.15 -0.0276923 -0.00923077 -0.144
          -0.0215385 -0.00923077 -0.15 -0.0215385 -0.00923077 -0.144 -0.0153846 -0.00923077 -0.15 -0.0153846 -0.00923077 -0.144
          -0.00923077 -0.00923077 -0.15 -0.00923077 -0.00923077 -0.144 -0.00307692 -0.00923077 -0.15 -0.00307692 -0.00923077 -0.144
          -0.04 -0.00307692 -0.15 -0.0338462 -0.00307692 -0.15 -0.04 -0.00307692 -0.144 -0.0338462 -0.00307692 -0.144
          -0.0276923 -0.00307692 -0.15 -0.0276923 -0.00307692 -0.144 -0.0215385 -0.00307692 -0.15 -0.0215385 -0.00307692 -0.144
          -0.0153846 -0.00307692 -0.15 -0.0153846 -0.00307692 -0.144 -0.00923077 -0.00307692 -0.15 -0.00923077 -0.00307692 -0.144
          -0.00307692 -0.00307692 -0.15 -0.00307692 -0.00307692 -0.144 -0.04 0.00307692 -0.15 -0.0338462 0.00307692 -0.15
          -0.04 0.00307692 -0.144 -0.0338462 0.00307692 -0.144 -0.0276923 0.00307692 -0.15 -0.0276923 0.00307692 -0.144
          -0.0215385 0.00307692 -0.15 -0.0215385 0.00307692 -0.144 -0.0153846 0.00307692 -0.15 -0.0153846 0.00307692 -0.144
          -0.00923077 0.00307692 -0.15 -0.00923077 0.00307692 -0.144 -0.00307692 0.00307692 -0.15 -0.00307692 0.00307692 -0.144
          -0.04 0.00923077 -0.15 -0.0338462 0.00923077 -0.15 -0.04 0.00923077 -0.144 -0.0338462 0.00923077 -0.144
          -0.0276923 0.00923077 -0.15 -0.0276923 0.00923077 -0.144 -0.0215385 0.00923077 -0.15 -0.0215385 0.00923077 -0.144
          -0.0153846 0.00923077 -0.15 -0.0153846 0.00923077 -0.144 -0.00923077 0.00923077 -0.15 -0.00923077 0.00923077 -0.144
          -0.00307692 0.00923077 -0.15 -0.00307692 0.00923077 -0.144 -0.04 0.0153846 -0.15 -0.0338462 0.0153846 -0.15
          -0.04 0.0153846 -0.144 -0.0338462 0.0153846 -0.144 -0.0276923 0.0153846 -0.15 -0.0276923 0.0153846 -0.144
          -0.0215385 0.0153846 -0.15 -0.0215385 0.0153846 -0.144 -0.0153846 0.0153846 -0.15 -0.0153846 0.0153846 -0.144
          -0.00923077 0.0153846 -0.15 -0.00923077 0.0153846 -0.144 -0.00307692 0.0153846 -0.15 -0.00307692 0.0153846 -0.144
          -0.04 0.0215385 -0.15 -0.0338462 0.0215385 -0.15 -0.04 0.0215385 -0.144 -0.0338462 0.0215385 -0.144
          -0.0276923 0.0215385 -0.15 -0.0276923 0.0215385 -0.144 -0.0215385 0.0215385 -0.15 -0.0215385 0.0215385 -0.144
          -0.0153846 0.0215385 -0.15 -0.0153846 0.0215385 -0.144 -0.00923077 0.0215385 -0.15 -0.00923077 0.0215385 -0.144
          -0.00307692 0.0215385 -0.15 -0.00307692 0.0215385 -0.144 -0.04 0.0276923 -0.15 -0.0338462 0.0276923 -0.15
          -0.04 0.0276923 -0.144 -0.0338462 0.0276923 -0.144 -0.0276923 0.0276923 -0.15 -0.0276923 0.0276923 -0.144
          -0.0215385 0.0276923 -0.15 -0.0215385 0.0276923 -0.144 -0.0153846 0.0276923 -0.15 -0.0153846 0.0276923 -0.144
          -0.00923077 0.0276923 -0.15 -0.00923077 0.0276923 -0.144 -0.00307692 0.0276923 -0.15 -0.00307692 0.0276923 -0.144
          -0.04 0.0338462 -0.15 -0.0338462 0.0338462 -0.15 -0.04 0.0338462 -0.144 -0.0338462 0.0338462 -0.144
          -0.0276923 0.0338462 -0.15 -0.0276923 0.0338462 -0.144 -0.0215385 0.0338462 -0.15 -0.0215385 0.0338462 -0.144
          -0.0153846 0.0338462 -0.15 -0.0153846 0.0338462 -0.144 -0.00923077 0.0338462 -0.15 -0.00923077 0.0338462 -0.144
          -0.00307692 0.0338462 -0.15 -0.00307692 0.0338462 -0.144 -0.04 0.04 -0.15 -0.0338462 0.04 -0.15
          -0.04 0.04 -0.144 -0.0338462 0.04 -0.144 -0.0276923 0.04 -0.15 -0.0276923 0.04 -0.144
          -0.0215385 0.04 -0.15 -0.0215385 0.04 -0.144 -0.0153846 0.04 -0.15 -0.0153846 0.04 -0.144
          -0.00923077 0.04 -0.15 -0.00923077 0.04 -0.144 -0.00307692 0.04 -0.15 -0.00307692 0.04 -0.144
          -0.04 -0.04 -0.138 -0.0338462 -0.04 -0.138 -0.04 -0.0338462 -0.138 -0.0338462 -0.0338462 -0.138
          -0.0276923 -0.04 -0.138 -0.0276923 -0.0338462 -0.138 -0.0215385 -0.04 -0.138 -0.0215385 -0.0338462 -0.138
          -0.0153846 -0.04 -0.138 -0.0153846 -0.0338462 -0.138 -0.00923077 -0.04 -0.138 -0.00923077 -0.0338462 -0.138
          -0.00307692 -0.04 -0.138 -0.00307692 -0.0338462 -0.138 -0.04 -0.0276923 -0.138 -0.0338462 -0.0276923 -0.138
          -0.0276923 -0.0276923 -0.138 -0.0215385 -0.0276923 -0.138 -0.0153846 -0.0276923 -0.138 -0.00923077 -0.0276923 -0.138
          -0.00307692 -0.0276923 -0.138 -0.04 -0.0215385 -0.138 -0.0338462 -0.0215385 -0.138 -0.0276923 -0.0215385 -0.138
          -0.0215385 -0.0215385 -0.138 -0.0153846 -0.0215385 -0.138 -0.00923077 -0.0215385 -0.138 -0.00307692 -0.0215385 -0.138
          -0.04 -0.0153846 -0.138 -0.0338462 -0.0153846 -0.138 -0.0276923 -0.0153846 -0.138 -0.0215385 -0.0153846 -0.138
          -0.0153846 -0.0153846 -0.138 -0.00923077 -0.0153846 -0.138 -0.00307692 -0.0153846 -0.138 -0.04 -0.00923077 -0.138
          -0.0338462 -0.00923077 -0.138 -0.0276923 -0.00923077 -0.138 -0.0215385 -0.00923077 -0.138 -0.0153846 -0.00923077 -0.138
          -0.00923077 -0.00923077 -0.138 -0.00307692 -0.00923077 -0.138 -0.04 -0.00307692 -0.138 -0.0338462 -0.00307692 -0.138
          -0.0276923 -0.00307692 -0.138 -0.0215385 -0.00307692 -0.138 -0.0153846 -0.00307692 -0.138 -0.00923077 -0.00307692 -0.138
          -0.00307692 -0.00307692 -0.138 -0.04 0.00307692 -0.138 -0.0338462 0.00307692 -0.138 -0.0276923 0.00307692 -0.138
          -0.0215385 0.00307692 -0.138 -0.0153846 0.00307692 -0.138 -0.00923077 0.00307692 -0.138 -0.00307692 0.00307692 -0.138
          -0.04 0.00923077 -0.138 -0.0338462 0.00923077 -0.138 -0.0276923 0.00923077 -0.138 -0.0215385 0.00923077 -0.138
          -0.0153846 0.00923077 -0.138 -0.00923077 0.00923077 -0.138 -0.00307692 0.00923077 -0.138 -0.04 0.0153846 -0.138
          -0.0338462 0.0153846 -0.138 -0.0276923 0.0153846 -0.138 -0.0215385 0.0153846 -0.138 -0.0153846 0.0153846 -0.138
          -0.00923077 0.0153846 -0.138 -0.00307692 0.0153846 -0.138 -0.04 0.0215385 -0.138 -0.0338462 0.0215385 -0.138
          -0.0276923 0.0215385 -0.138 -0.0215385 0.0215385 -0.138 -0.0153846 0.0215385 -0.138 -0.00923077 0.0215385 -0.138
          -0.00307692 0.0215385 -0.138 -0.04 0.0276923 -0.138 -0.0338462 0.0276923 -0.138 -0.0276923 0.0276923 -0.138
          -0.0215385 0.0276923 -0.138 -0.0153846 0.0276923 -0.138 -0.00923077 0.0276923 -0.138 -0.00307692 0.0276923 -0.138
          -0.04 0.0338462 -0.138 -0.0338462 0.0338462 -0.138 -0.0276923 0.0338462 -0.138 -0.0215385 0.0338462 -0.138
          -0.0153846 0.0338462 -0.138 -0.00923077 0.0338462 -0.138 -0.00307692 0.0338462 -0.138 -0.04 0.04 -0.138
          -0.0338462 0.04 -0.138 -0.0276923 0.04 -0.138 -0.0215385 0.04 -0.138 -0.0153846 0.04 -0.138
          -0.00923077 0.04 -0.138 -0.00307692 0.04 -0.138 -0.04 -0.04 -0.132 -0.0338462 -0.04 -0.132
          -0.04 -0.0338462 -0.132 -0.0338462 -0.0338462 -0.132 -0.0276923 -0.04 -0.132 -0.0276923 -0.0338462 -0.132
          -0.0215385 -0.04 -0.132 -0.0215385 -0.0338462 -0.132 -0.0153846 -0.04 -0.132 -0.0153846 -0.0338462 -0.132
          -0.00923077 -0.04 -0.132 -0.00923077 -0.0338462 -0.132 -0.00307692 -0.04 -0.132 -0.00307692 -0.0338462 -0.132
          -0.04 -0.0276923 -0.132 -0.0338462 -0.0276923 -0.132 -0.0276923 -0.0276923 -0.132 -0.0215385 -0.0276923 -0.132