<?xml version="1.0"?>
<VTKFile type="UnstructuredGrid" version="0.1" byte_order="LittleEndian">
  <UnstructuredGrid>
    <Piece NumberOfCells="1014" NumberOfPoints="1372">
      <CellData Scalars="p (Pa)">
        <DataArray type="Float32" Name="p (Pa)" NumberOfComponents="1" format="ascii">
          804.839 -1808.05 -7092.24 -14758.3 -23636.5 -33685.8 41.2093 -3246.45 -10224.7 -20710.9 -30873.5 -42768.6
          -1013.69 -5728.8 -17175.4 -38034.3 -48372.5 -64570.3 -1235 -7520.92 -26695.9 -88762.4 -76909.4 -102639
          711.314 -4378.06 -17245.2 -43433.8 -69658 -130129 3765.16 -169.497 -9441.64 -27491.3 -62334.5 -178126
          7106.14 3848.4 -3922.66 -20295.6 -60307.4 -201804 10433.6 7653.7 757.313 -15955.8 -81199.5 -754443
          13634.5 11435 6161.68 -5104.54 -32263.9 -112652 16510.9 14918.6 11355.8 4885.67 -6125.15 -21714.2
          18829 17717.2 15392.1 11706 6765.07 2032.77 20431.1 19624.8 18023.6 15715.1 13034.3 10840.5
          21244 20581.1 19301.7 17545.7 15634.4 14125.1 -3351.54 -6530.17 -13065.5 -22603.1 -32707.5 -43914.2
          -4399.26 -8702.77 -18445.6 -34509.6 -44858.4 -56616.4 -5941.9 -13041.6 -34538 -100475 -84610 -94034.5
          -6386.33 -17716.4 -81836.8 -862547 -198223 -199029 -3198.86 -10340.5 -32414.2 -103605 -114651 -225879
          1182.84 -3294.51 -14158.3 -35805.5 -69178.2 -186194 5527.06 2350.25 -4946.28 -18882.4 -46769.9 -135967
          9507.57 7076.26 1511.34 -9312 -32130.7 -94580.4 13051.3 11224.5 7175.37 -74.2714 -12295.8 -30479.2
          16053.1 14736.9 11956 7455.29 1188.49 -5363.72 18389.8 17452.8 15563.3 12761.7 9362.74 6392.59
          19977 19278.9 17921.2 16029.5 13919.9 12194.4 20776.3 20191 19075.1 17569.8 15953.5 14645.7
          -6166.58 -9631.96 -16821.9 -27556.1 -39669 -53066.6 -7224.98 -11891.8 -22543.6 -40680 -56976.7 -71770.9
          -8699.69 -16267.9 -39075.1 -108899 -147000 -163485 -8827.22 -20493.2 -83640.3 -795491 -932679 -941311
          -5058.35 -12399.6 -34863.7 -106760 -192516 -940851 -0.734995 -4424.55 -15013.8 -35629.5 -67930.4 -158765
          4925.51 2009.11 -4434.44 -15666.1 -33768.1 -66472.8 9297.49 7231.85 2791.29 -4684.27 -16235.7 -32695.3
          13024.5 11539.1 8437.09 3507.55 -3271.63 -10729.6 16060 14998.4 12854.1 9656.88 5706.5 2020.29
          18360.8 17593.8 16092 13972 11549 9466.27 19900.5 19315.4 18196.7 16677.2 15019.9 13631.4
          20670.4 20171.1 19228.6 17973.3 16631.9 15508.8 -7274.1 -10648.4 -17626.2 -28193.6 -41333 -56848.6
          -8045.52 -12286.6 -21538.3 -36357.8 -53581.1 -71808.3 -8901.44 -14884.4 -29795.8 -59040.1 -90146.9 -115807
          -8321.68 -15940.7 -39155.1 -113359 -187112 -239051 -4806.67 -10674.2 -25814.3 -58543.6 -110412 -244063
          128.454 -3799.98 -12829.9 -29253.8 -55328.1 -100512 5132.26 2519.36 -3123.79 -12535.4 -26443.6 -45140.1
          9607.49 7825.76 4118 -1716.89 -9646.18 -18561.5 13368.1 12131.3 9634.22 5908.69 1259.11 -3311.3
          16368.7 15497.2 13784.5 11346.3 8504.27 5929.54 18604.3 17971.5 16755.5 15086.4 13229 11607.7
          20083.7 19594 18667.6 17426.5 16080.9 14915.5 20819.3 20396.2 19602.3 18551.3 17423.9 16444.6
          -6956.67 -10109.4 -16674.6 -26910.6 -40581.7 -57298.7 -7420.19 -11195.2 -19385.1 -32863.9 -51200 -71106
          -7747.39 -12659.2 -24347.1 -46790.8 -82012 -107061 -6789.91 -12643.2 -28356.4 -67709.7 -164711 -181894
          -3612.37 -8732.92 -22157.7 -55262.2 -148393 -244090 990.801 -2668.37 -11383.3 -29025.1 -64516 -137307
          5835.93 3396.03 -1978.39 -11380.3 -26452.6 -47131.7 10236.6 8623.58 5264.38 -38.3601 -7253.5 -15055.2
          13929.2 12847 10682 7499.76 3607.83 -121.914 16849.5 16103.1 14651.8 12618.7 10285.9 8165.36
          19005 18466.3 17439.2 16044 14498.7 13118 20421.5 20002.7 19214 18161.6 17015.4 15990.7
          21123 20759 20077.5 19175.5 18198.9 17321.5 -5684.75 -8597.61 -14746 -24648.3 -38536.8 -55246
          -5923.06 -9348.85 -16954.9 -30368.5 -51397.9 -71052.5 -5931.01 -10323.7 -21352.5 -47108.7 -119068 -125265
          -4854.36 -10208.1 -26714.9 -100042 -872962 -311525 -1965.07 -6925.68 -22364.5 -92922.9 -877113 -971257
          2281.45 -1278.37 -10565 -35030.5 -129892 -841654 6851.23 4511.13 -883.561 -11467.4 -33641.4 -88647.1
          11060.4 9551.92 6348.89 1056.96 -6856.46 -16924.7 14610 13624.3 11641.5 8686.35 4968.86 1272.95
          17415.4 16748.7 15452.7 13632.7 11525.5 9573.8 19480.2 19003.7 18096.3 16863 15487.3 14230.2
          20833.4 20463.7 19767.5 18836.7 17813.4 16874.3 21502.3 21180.5 20577.7 19777 18900.3 18091
          -3857.52 -6480.62 -12034.1 -21064 -34044.7 -50626.7 -3908.08 -6907.66 -13519.5 -25057.1 -43223 -67507.4
          -3646.61 -7312.29 -16112.6 -34365.3 -72956.9 -153681 -2447.72 -6696.39 -18097 -49352.2 -170862 -967841
          182.508 -3819.24 -14652.8 -44923.8 -166144 -981988 3954.26 875.191 -6904.96 -26100.6 -100700 -882714
          8102.86 5995.03 1148.14 -8374.97 -29027.4 -89255.1 12007.4 10626.9 7687.7 2788.93 -4737.89 -15168.2
          15347 14442.9 12620 9886.05 6392.19 2780.8 18006.9 17397.1 16209.8 14535.7 12577.4 10721.4
          19972 19537.3 18708.4 17577.6 16304.6 15117.7 21261.8 20924.7 20289.1 19435.7 18488.3 17601.1
          21899.6 21606.2 21055.6 20320.5 19507.6 18741.6 -1837.41 -4160.34 -9069.78 -17067.2 -28734 -44175
          -1740.24 -4316.69 -9930.21 -19607 -35020.3 -57654.7 -1272.96 -4265.42 -11185.9 -24742.6 -52762.3 -123470
          5.90432 -3294.77 -11460.3 -30698.8 -100756 -796777 2408.28 -688.256 -8260.54 -24850.1 -66359.7 -209144
          5727.41 3231.55 -2632.51 -14517 -40772.8 -115917 9420.54 7617.81 3627.58 -3507.57 -15724.4 -35470.1
          12973.9 11743.5 9167.94 5038.87 -794.355 -7670.32 16071.8 15244.3 13585.8 11128.7 8054.6 4933.77
          18572.6 18006.1 16904.3 15352.2 13535.8 11792.6 20435.7 20029.1 19252.7 18190.3 16986.3 15845.9
          21664.6 21348.3 20750.8 19944.9 19043 18186.1 22273.8 21998.2 21479.8 20784.7 20009.4 19268.8
          84.2076 -1973.58 -6306.3 -13340.2 -23628.5 -37506.4 281.123 -1940.33 -6716.5 -14775 -27276.7 -45356.3
          875.57 -1594.5 -7106.62 -17133.9 -34937 -66522.1 2172.87 -449.631 -6514.64 -18515.8 -44596.7 -119855
          4365.93 1896.8 -3773.28 -14651.6 -35813.9 -81867.8 7307.33 5245.94 636.524 -7732.13 -22345.9 -47451.5
          10603.4 9041.96 5685.11 44.0293 -8533.92 -20035 13836.6 12724 10426.3 6840.89 1999.04 -3472.61
          16709.8 15937.6 14396.1 12128.8 9316.9 6440.26 19063.9 18524.9 17475.9 15995.8 14255.9 12559.1
          20835.6 20444.8 19697.1 18669.5 17496.2 16370.3 22011.4 21706.3 21128.5 20345.7 19463.5 18617
          22596.2 22330.2 21828.6 21153 20394.8 19664.5 1712.48 -144.001 -4044.07 -10369.6 -19679.8 -32554.5
          1962.25 -7.37177 -4208.49 -11224.3 -22059.6 -38240 2609.87 476.825 -4191.9 -12384.9 -26176 -49898.3
          3871.94 1645.81 -3338.66 -12502.8 -29327.3 -62728.5 5877.92 3753.1 -1012.69 -9780.68 -25863.7 -58999.1
          8526.42 6694.93 2654.27 -4519.92 -16712.1 -37430.5 11519.6 10079.7 6995.73 1836.75 -6013.2 -16853
          14506 13446.7 11253.4 7808.78 3083.91 -2475.34 17204.8 16453.1 14944.3 12701.6 9866.98 6868.11
          19445.3 18914 17874.2 16392.4 14622.5 12859.3 21146.7 20759.8 20016.1 18986 17797 16642.7
          22282.2 21980.3 21406.4 20624.7 19737.4 18880.8 22848.7 22585.8 22088.6 21416.3 20658 19924.6
          2947.03 1226.15 -2386.7 -8250.99 -16938.6 -29211.9 3215 1402.8 -2456.01 -8898.28 -18964.9 -34882.9
          3864.92 1917.1 -2328.73 -9760.33 -22493.4 -47399.3 5062.29 3023.48 -1525.91 -9873.49 -25409.1 -59429.9
          6910.11 4919.31 418.451 -8085.07 -24910.4 -65896.6 9344.07 7574.35 3599.64 -3794.81 -17855.3 -48396.9
          12128.2 10698.7 7571.99 2086 -7101.43 -22138.3 14949.7 13879.4 11619.8 7926.48 2483.49 -4675.8
          17534.4 16768.6 15207.7 12818 9648.45 6071.53 19701.5 19159.9 18088.2 16530.5 14615.5 12645.8
          21358 20965.1 20204.6 19138.6 17888.8 16659.7 22467.9 22163 21581.1 20783.1 19870.4 18985.4
          23022.7 22758.3 22257 21576.3 20805.2 20058.4 3753.27 2115.02 -1319.3 -6874.29 -15029.5 -26254.2
          4021.6 2298.48 -1364.36 -7452.1 -16830.6 -30895 4652.46 2796.01 -1248.66 -8310.9 -20222.8 -41339.1
          5784.76 3816.78 -601.394 -8829.51 -24652 -61215.4 7513.74 5542.58 994.555 -8090.08 -29293.1 -114826
          9803.49 8000.99 3819.12 -4645.02 -24853.5 -107359 12458 10973.3 7612.19 1222.28 -11526.1 -41475.4
          15185.1 14065.6 11633.7 7408.76 406.567 -10955.4 17708.3 16908.9 15245.7 12592.9 8814.46 4055.8
          19837.4 19276.1 18150.4 16472.9 14328.8 12012.8 21471 21067.6 20280.3 19161.5 17824.7 16486.3
          22567.8 22257.4 21662.3 20840.5 19892.7 18969.5 23116.7 22848.9 22339.9 21646 20856.9 20092.4
          4126.48 2527.97 -817.299 -6203.83 -14022.1 -24491.3 4391.42 2709.68 -857.49 -6747.57 -15651.2 -28322.4
          5006.58 3189.57 -760.216 -7594.18 -18753 -36588.2 6099.66 4157.28 -201.294 -8241.79 -22947.5 -50977.3
          7764.21 5789.17 1210.7 -7891 -27410.5 -77412.7 9979.1 8137.56 3789.13 -5337.5 -28481.2 -126157
          12570.3 11031.4 7452.16 150.873 -17599.3 -92962.9 15255.7 14092.1 11506.1 6765.2 -2123.51 -21507.3
          17754.4 16927 15177.9 12291.2 7889.81 1542.91 19869.3 19292.4 18123.8 16348.3 14000 11321.2
          21494.6 21083 20275.3 19115.8 17709 16274.4 22586.6 22272 21667 20827.4 19853.2 18899.9
          23133.2 22862.8 22348 21644.4 20842.2 20064.6
        </DataArray>
        <DataArray type="Float32" Name="saturation" NumberOfComponents="1" format="ascii">
          0.274361 0.272998 0.270404 0.266984 0.263452 0.259912 0.273957 0.272271 0.268961 0.26457 0.260859 0.25706
          0.273407 0.271053 0.26598 0.258509 0.255441 0.251263 0.273292 0.270203 0.262327 0.246117 0.248498 0.243616
          0.274312 0.27171 0.265951 0.256863 0.250084 0.239388 0.275977 0.273846 0.269315 0.262041 0.2518 0.233661
          0.277898 0.276024 0.271935 0.264732 0.252297 0.231384 0.279925 0.278224 0.274336 0.266482 0.247607 0.210332
          0.28199 0.280558 0.277344 0.271355 0.260387 0.241975 0.283953 0.282853 0.280507 0.276609 0.270863 0.264181
          0.285615 0.284809 0.283177 0.280731 0.277697 0.275022 0.286809 0.286203 0.285029 0.283399 0.281594 0.280181
          0.287429 0.286922 0.285963 0.284686 0.283344 0.282317 0.272218 0.27067 0.267707 0.263842 0.260238 0.256721
          0.2717 0.269654 0.265466 0.259641 0.256445 0.253228 0.270951 0.267717 0.259632 0.243988 0.246923 0.245133
          0.270739 0.26576 0.247478 0.208657 0.23171 0.231636 0.272295 0.268909 0.260336 0.243452 0.241662 0.229344
          0.274563 0.272247 0.267238 0.259219 0.250193 0.232851 0.276977 0.275195 0.271432 0.265291 0.255894 0.238593
          0.279349 0.277881 0.27474 0.269374 0.260432 0.245034 0.281605 0.280424 0.277939 0.273896 0.268042 0.260994
          0.283634 0.28273 0.280892 0.278105 0.274566 0.27123 0.285295 0.284619 0.283295 0.281415 0.27926 0.277479
          0.286467 0.285947 0.284955 0.283617 0.28218 0.281046 0.287071 0.286628 0.285796 0.284703 0.283564 0.282668
          0.270844 0.269229 0.266125 0.262018 0.258 0.254158 0.270341 0.268219 0.263864 0.25769 0.253136 0.249611
          0.269655 0.266353 0.258184 0.242575 0.237173 0.23523 0.269596 0.264655 0.247116 0.209658 0.207722 0.207614
          0.271378 0.267996 0.259525 0.242925 0.232242 0.20762 0.273935 0.271687 0.266876 0.259276 0.250478 0.235766
          0.276632 0.275009 0.271683 0.266603 0.259885 0.250816 0.279219 0.277973 0.275437 0.27156 0.266366 0.260242
          0.281587 0.280624 0.278695 0.275833 0.272258 0.268734 0.283638 0.282908 0.281475 0.279441 0.27708 0.275015
          0.285273 0.28472 0.283661 0.282215 0.280631 0.279323 0.286409 0.285974 0.285154 0.28407 0.282922 0.281988
          0.28699 0.286613 0.285909 0.284993 0.284038 0.283257 0.270318 0.26877 0.265796 0.261792 0.257491 0.253169
          0.269958 0.268046 0.264249 0.259042 0.254021 0.249603 0.269562 0.266931 0.26123 0.252613 0.245854 0.241483
          0.26983 0.266489 0.258159 0.241864 0.232761 0.228327 0.2715 0.268759 0.262646 0.252738 0.242331 0.227957
          0.274003 0.271995 0.267809 0.261419 0.253562 0.243981 0.27675 0.275288 0.272332 0.267937 0.262418 0.256363
          0.27941 0.278327 0.276175 0.273045 0.269222 0.265419 0.281814 0.281005 0.279427 0.277197 0.274604 0.272239
          0.283854 0.283249 0.28209 0.280501 0.278735 0.277209 0.285451 0.284992 0.284125 0.282968 0.281722 0.280668
          0.286547 0.28618 0.285497 0.284601 0.283653 0.282851 0.287104 0.286782 0.286187 0.285412 0.284599 0.283907
          0.270468 0.269013 0.266185 0.262249 0.25772 0.253054 0.27025 0.268527 0.265091 0.260186 0.25466 0.249759
          0.270097 0.267883 0.263186 0.255888 0.247442 0.242876 0.270547 0.26789 0.261734 0.250529 0.235093 0.233278
          0.272089 0.26964 0.264011 0.253579 0.237001 0.227955 0.274461 0.272561 0.268443 0.261499 0.251276 0.238415
          0.277155 0.275771 0.272911 0.268445 0.262415 0.255791 0.279801 0.278808 0.276826 0.273915 0.270328 0.266859
          0.282186 0.281471 0.280081 0.278132 0.275889 0.273871 0.284191 0.283668 0.282672 0.281322 0.279832 0.278531
          0.285744 0.28535 0.28461 0.283627 0.282569 0.281649 0.286802 0.286486 0.285899 0.285129 0.284309 0.28359
          0.287336 0.287058 0.286542 0.28587 0.285156 0.284526 0.271075 0.269702 0.266989 0.263075 0.258352 0.253583
          0.27096 0.269358 0.26607 0.261032 0.254607 0.249771 0.270956 0.268916 0.264321 0.255797 0.240987 0.240076
          0.271477 0.268968 0.26232 0.244063 0.208511 0.223689 0.272918 0.270483 0.263933 0.245337 0.208454 0.207251
          0.275158 0.27327 0.268808 0.259471 0.239421 0.208956 0.277748 0.276397 0.273474 0.268406 0.259927 0.246139
          0.28032 0.279376 0.277453 0.274496 0.270515 0.266083 0.282644 0.281983 0.28069 0.278846 0.276657 0.274612
          0.284593 0.28412 0.283219 0.281989 0.280616 0.27939 0.286096 0.285744 0.285082 0.284201 0.283242 0.282388
          0.287115 0.286833 0.28631 0.285621 0.284878 0.284209 0.287628 0.28738 0.28692 0.286317 0.285668 0.285078
          0.271967 0.270694 0.268156 0.264432 0.259794 0.254817 0.271942 0.270491 0.267511 0.262924 0.256925 0.250576
          0.272072 0.2703 0.266417 0.259688 0.249349 0.236361 0.272673 0.270591 0.265606 0.255168 0.234422 0.207291
          0.274032 0.271986 0.267028 0.256425 0.234935 0.207124 0.276083 0.274399 0.270492 0.262542 0.243949 0.208377
          0.278493 0.277247 0.274545 0.269805 0.261498 0.246023 0.280925 0.280046 0.278244 0.275436 0.271534 0.266811
          0.283146 0.282531 0.281322 0.279583 0.277479 0.275431 0.285017 0.28458 0.283743 0.282594 0.281295 0.280105
          0.286463 0.286138 0.285527 0.284709 0.283809 0.282989 0.287443 0.287184 0.286701 0.286063 0.285366 0.284726
          0.287937 0.287709 0.287284 0.286725 0.286116 0.285551 0.272983 0.271817 0.269485 0.266024 0.261601 0.256644
          0.273033 0.27174 0.269094 0.265003 0.259474 0.252963 0.273273 0.271766 0.268531 0.26304 0.254239 0.240336
          0.273938 0.272247 0.268409 0.260919 0.243939 0.209637 0.275227 0.273575 0.269858 0.263 0.250842 0.230735
          0.277092 0.27568 0.272579 0.267086 0.257662 0.241467 0.279295 0.278202 0.2759 0.272141 0.266579 0.259328
          0.281554 0.280755 0.27914 0.276697 0.27352 0.270133 0.283646 0.283076 0.281958 0.280363 0.278464 0.276637
          0.285428 0.285017 0.28423 0.28315 0.281925 0.280787 0.286812 0.286506 0.285927 0.28515 0.284288 0.28349
          0.287754 0.287509 0.287051 0.286443 0.285772 0.285147 0.28823 0.288014 0.287611 0.287077 0.286491 0.285939
          0.27398 0.272913 0.270777 0.267589 0.263455 0.258676 0.274084 0.27293 0.270582 0.266977 0.262118 0.2563
          0.274399 0.273107 0.270397 0.265997 0.259501 0.250804 0.275098 0.2737 0.270678 0.265437 0.256521 0.240869
          0.276315 0.274948 0.272009 0.267029 0.259217 0.247472 0.278018 0.276815 0.274272 0.270104 0.26394 0.2557
          0.280031 0.279063 0.277068 0.273959 0.269731 0.264834 0.282125 0.28139 0.27992 0.277742 0.275004 0.272158
          0.284093 0.283553 0.2825 0.281004 0.279231 0.277507 0.285788 0.285393 0.284636 0.283594 0.282405 0.281283
          0.287116 0.286819 0.286257 0.285498 0.28465 0.283855 0.288024 0.287786 0.28734 0.286744 0.286083 0.28546
          0.288484 0.288274 0.287882 0.287359 0.286781 0.286233 0.274849 0.27386 0.271875 0.268895 0.264974 0.260289
          0.274984 0.273932 0.271794 0.268514 0.264049 0.258445 0.275337 0.274187 0.271802 0.268003 0.262515 0.255017
          0.276037 0.274812 0.272225 0.267951 0.261393 0.251705 0.277179 0.27597 0.273407 0.269161 0.262628 0.252623
          0.278749 0.277656 0.275362 0.271641 0.26617 0.2587 0.280612 0.279703 0.277833 0.274916 0.270917 0.266112
          0.282574 0.281866 0.280442 0.278316 0.275598 0.272659 0.284443 0.283913 0.282871 0.281376 0.279571 0.277758
          0.28607 0.285678 0.284922 0.28387 0.282652 0.281479 0.287354 0.287058 0.286496 0.285731 0.284866 0.284046
          0.288236 0.288 0.287554 0.286956 0.286287 0.285653 0.288684 0.288476 0.288085 0.287562 0.286981 0.286427
          0.275523 0.274587 0.272704 0.269862 0.266077 0.261434 0.275671 0.274682 0.272668 0.269564 0.265258 0.259519
          0.276033 0.274959 0.272733 0.26917 0.263883 0.255715 0.27671 0.275565 0.273142 0.269119 0.262795 0.252515
          0.277783 0.276629 0.274156 0.269939 0.262978 0.25095 0.279248 0.278176 0.275885 0.271998 0.265704 0.255434
          0.281003 0.280091 0.278175 0.275051 0.2704 0.264019 0.282875 0.282153 0.280676 0.278387 0.275268 0.271564
          0.284678 0.284134 0.283051 0.281452 0.279436 0.277292 0.28626 0.285859 0.285076 0.283967 0.282648 0.281339
          0.287517 0.287215 0.286638 0.285843 0.284932 0.284058 0.288383 0.288143 0.287689 0.287076 0.286387 0.28573
          0.288823 0.288612 0.288217 0.287686 0.287093 0.286528 0.27597 0.275067 0.273249 0.270507 0.266869 0.262486
          0.276121 0.275167 0.273226 0.270235 0.266121 0.260852 0.276477 0.27544 0.273285 0.269835 0.26476 0.25749
          0.277125 0.276006 0.273621 0.269595 0.263073 0.252073 0.27814 0.276986 0.274463 0.269937 0.261405 0.241635
          0.279532 0.278432 0.276007 0.271579 0.262999 0.242827 0.281217 0.280264 0.278199 0.274585 0.26838 0.257448
          0.283035 0.282278 0.280685 0.278078 0.27415 0.268633 0.284802 0.284233 0.283077 0.281305 0.278924 0.27614
          0.286362 0.285944 0.285121 0.283926 0.282454 0.280929 0.287604 0.287294 0.286695 0.28586 0.284886 0.283936
          0.288461 0.288217 0.287752 0.28712 0.286403 0.285718 0.288898 0.288684 0.288282 0.28774 0.287132 0.286553
          0.27618 0.275292 0.273508 0.270826 0.267296 0.263133 0.276329 0.275392 0.273487 0.270567 0.266609 0.261746
          0.276678 0.275657 0.273538 0.270168 0.265342 0.258968 0.277308 0.276197 0.27383 0.269867 0.263711 0.254721
          0.27829 0.277128 0.274578 0.27003 0.26207 0.248392 0.279641 0.278514 0.27599 0.271242 0.26169 0.239948
          0.28129 0.280301 0.278104 0.274015 0.265807 0.245329 0.283083 0.282295 0.280603 0.277697 0.272837 0.264261
          0.284835 0.284246 0.28303 0.281109 0.278365 0.274757 0.286386 0.285957 0.285102 0.283839 0.282234 0.280485
          0.287622 0.287305 0.286691 0.285826 0.284803 0.283788 0.288476 0.288228 0.287756 0.28711 0.286374 0.285667
          0.288911 0.288695 0.288288 0.287738 0.287121 0.286532
        </DataArray>
        <DataArray type="Float32" Name="process rank" NumberOfComponents="1" format="ascii">
          2 2 2 2 2 2 2 2 2 2 2 2
          2 2 2 2 2 2 2 2 2 2 2 2
          2 2 2 2 2 2 2 2 2 2 2 2
          2 2 2 2 2 2 2 2 2 2 2 2
          2 2 2 2 2 2 2 2 2 2 2 2
          2 2 2 2 2 2 2 2 2 2 2 2
          2 2 2 2 2 2 2 2 2 2 2 2
          2 2 2 2 2 2 2 2 2 2 2 2
          2 2 2 2 2 2 2 2 2 2 2 2
          2 2 2 2 2 2 2 2 2 2 2 2
          2 2 2 2 2 2 2 2 2 2 2 2
          2 2 2 2 2 2 2 2 2 2 2 2
          2 2 2 2 2 2 2 2 2 2 2 2
          2 2 2 2 2 2 2 2 2 2 2 2
          2 2 2 2 2 2 2 2 2 2 2 2
          2 2 2 2 2 2 2 2 2 2 2 2
          2 2 2 2 2 2 2 2 2 2 2 2
          2 2 2 2 2 2 2 2 2 2 2 2
          2 2 2 2 2 2 2 2 2 2 2 2
          2 2 2 2 2 2 2 2 2 2 2 2
          2 2 2 2 2 2 2 2 2 2 2 2
          2 2 2 2 2 2 2 2 2 2 2 2
          2 2 2 2 2 2 2 2 2 2 2 2
          2 2 2 2 2 2 2 2 2 2 2 2
          2 2 2 2 2 2 2 2 2 2 2 2
          2 2 2 2 2 2 2 2 2 2 2 2
          2 2 2 2 2 2 2 2 2 2 2 2
          2 2 2 2 2 2 2 2 2 2 2 2
          2 2 2 2 2 2 2 2 2 2 2 2
          2 2 2 2 2 2 2 2 2 2 2 2
          2 2 2 2 2 2 2 2 2 2 2 2
          2 2 2 2 2 2 2 2 2 2 2 2
          2 2 2 2 2 2 2 2 2 2 2 2
          2 2 2 2 2 2 2 2 2 2 2 2
          2 2 2 2 2 2 2 2 2 2 2 2
          2 2 2 2 2 2 2 2 2 2 2 2
          2 2 2 2 2 2 2 2 2 2 2 2
          2 2 2 2 2 2 2 2 2 2 2 2
          2 2 2 2 2 2 2 2 2 2 2 2
          2 2 2 2 2 2 2 2 2 2 2 2
          2 2 2 2 2 2 2 2 2 2 2 2
          2 2 2 2 2 2 2 2 2 2 2 2
          2 2 2 2 2 2 2 2 2 2 2 2
          2 2 2 2 2 2 2 2 2 2 2 2
          2 2 2 2 2 2 2 2 2 2 2 2
          2 2 2 2 2 2 2 2 2 2 2 2
          2 2 2 2 2 2 2 2 2 2 2 2
          2 2 2 2 2 2 2 2 2 2 2 2
          2 2 2 2 2 2 2 2 2 2 2 2
          2 2 2 2 2 2 2 2 2 2 2 2
          2 2 2 2 2 2 2 2 2 2 2 2
          2 2 2 2 2 2 2 2 2 2 2 2
          2 2 2 2 2 2 2 2 2 2 2 2
          2 2 2 2 2 2 2 2 2 2 2 2
          2 2 2 2 2 2 2 2 2 2 2 2
          2 2 2 2 2 2 2 2 2 2 2 2
          2 2 2 2 2 2 2 2 2 2 2 2
          2 2 2 2 2 2 2 2 2 2 2 2
          2 2 2 2 2 2 2 2 2 2 2 2
          2 2 2 2 2 2 2 2 2 2 2 2
          2 2 2 2 2 2 2 2 2 2 2 2
          2 2 2 2 2 2 2 2 2 2 2 2
          2 2 2 2 2 2 2 2 2 2 2 2
          2 2 2 2 2 2 2 2 2 2 2 2
          2 2 2 2 2 2 2 2 2 2 2 2
          2 2 2 2 2 2 2 2 2 2 2 2
          2 2 2 2 2 2 2 2 2 2 2 2
          2 2 2 2 2 2 2 2 2 2 2 2
          2 2 2 2 2 2 2 2 2 2 2 2
          2 2 2 2 2 2 2 2 2 2 2 2
          2 2 2 2 2 2 2 2 2 2 2 2
          2 2 2 2 2 2 2 2 2 2 2 2
          2 2 2 2 2 2 2 2 2 2 2 2
          2 2 2 2 2 2 2 2 2 2 2 2
          2 2 2 2 2 2 2 2 2 2 2 2
          2 2 2 2 2 2 2 2 2 2 2 2
          2 2 2 2 2 2 2 2 2 2 2 2
          2 2 2 2 2 2 2 2 2 2 2 2
          2 2 2 2 2 2 2 2 2 2 2 2
          2 2 2 2 2 2 2 2 2 2 2 2
          2 2 2 2 2 2 2 2 2 2 2 2
          2 2 2 2 2 2 2 2 2 2 2 2
          2 2 2 2 2 2 2 2 2 2 2 2
          2 2 2 2 2 2 2 2 2 2 2 2
          2 2 2 2 2 2
        </DataArray>
      </CellData>
      <Points>
        <DataArray type="Float32" Name="Coordinates" NumberOfComponents="3" format="ascii">
          -0.04 -0.04 -0.078 -0.0338462 -0.04 -0.078 -0.04 -0.0338462 -0.078 -0.0338462 -0.0338462 -0.078
          -0.04 -0.04 -0.072 -0.0338462 -0.04 -0.072 -0.04 -0.0338462 -0.072 -0.0338462 -0.0338462 -0.072
          -0.0276923 -0.04 -0.078 -0.0276923 -0.0338462 -0.078 -0.0276923 -0.04 -0.072 -0.0276923 -0.0338462 -0.072
          -0.0215385 -0.04 -0.078 -0.0215385 -0.0338462 -0.078 -0.0215385 -0.04 -0.072 -0.0215385 -0.0338462 -0.072
          -0.0153846 -0.04 -0.078 -0.0153846 -0.0338462 -0.078 -0.0153846 -0.04 -0.072 -0.0153846 -0.0338462 -0.072
          -0.00923077 -0.04 -0.078 -0.00923077 -0.0338462 -0.078 -0.00923077 -0.04 -0.072 -0.00923077 -0.0338462 -0.072
          -0.00307692 -0.04 -0.078 -0.00307692 -0.0338462 -0.078 -0.00307692 -0.04 -0.072 -0.00307692 -0.0338462 -0.072
          -0.04 -0.0276923 -0.078 -0.0338462 -0.0276923 -0.078 -0.04 -0.0276923 -0.072 -0.0338462 -0.0276923 -0.072
          -0.0276923 -0.0276923 -0.078 -0.0276923 -0.0276923 -0.072 -0.0215385 -0.0276923 -0.078 -0.0215385 -0.0276923 -0.072
          -0.0153846 -0.0276923 -0.078 -0.0153846 -0.0276923 -0.072 -0.00923077 -0.0276923 -0.078 -0.00923077 -0.0276923 -0.072
          -0.00307692 -0.0276923 -0.078 -0.00307692 -0.0276923 -0.072 -0.04 -0.0215385 -0.078 -0.0338462 -0.0215385 -0.078
          -0.04 -0.0215385 -0.072 -0.0338462 -0.0215385 -0.072 -0.0276923 -0.0215385 -0.078 -0.0276923 -0.0215385 -0.072
          -0.0215385 -0.0215385 -0.078 -0.0215385 -0.0215385 -0.072 -0.0153846 -0.0215385 -0.078 -0.0153846 -0.0215385 -0.072
          -0.00923077 -0.0215385 -0.078 -0.00923077 -0.0215385 -0.072 -0.00307692 -0.0215385 -0.078 -0.00307692 -0.0215385 -0.072
          -0.04 -0.0153846 -0.078 -0.0338462 -0.0153846 -0.078 -0.04 -0.0153846 -0.072 -0.0338462 -0.0153846 -0.072
          -0.0276923 -0.0153846 -0.078 -0.0276923 -0.0153846 -0.072 -0.0215385 -0.0153846 -0.078 -0.0215385 -0.0153846 -0.072
          -0.0153846 -0.0153846 -0.078 -0.0153846 -0.0153846 -0.072 -0.00923077 -0.0153846 -0.078 -0.00923077 -0.0153846 -0.072
          -0.00307692 -0.0153846 -0.078 -0.00307692 -0.0153846 -0.072 -0.04 -0.00923077 -0.078 -0.0338462 -0.00923077 -0.078
          -0.04 -0.00923077 -0.072 -0.0338462 -0.00923077 -0.072 -0.0276923 -0.00923077 -0.078 -0.0276923 -0.00923077 -0.072
          -0.0215385 -0.00923077 -0.078 -0.0215385 -0.00923077 -0.072 -0.0153846 -0.00923077 -0.078 -0.0153846 -0.00923077 -0.072
          -0.00923077 -0.00923077 -0.078 -0.00923077 -0.00923077 -0.072 -0.00307692 -0.00923077 -0.078 -0.00307692 -0.00923077 -0.072
          -0.04 -0.00307692 -0.078 -0.0338462 -0.00307692 -0.078 -0.04 -0.00307692 -0.072 -0.0338462 -0.00307692 -0.072
          -0.0276923 -0.00307692 -0.078 -0.0276923 -0.00307692 -0.072 -0.0215385 -0.00307692 -0.078 -0.0215385 -0.00307692 -0.072
          -0.0153846 -0.00307692 -0.078 -0.0153846 -0.00307692 -0.072 -0.00923077 -0.00307692 -0.078 -0.00923077 -0.00307692 -0.072
          -0.00307692 -0.00307692 -0.078 -0.00307692 -0.00307692 -0.072 -0.04 0.00307692 -0.078 -0.0338462 0.00307692 -0.078
          -0.04 0.00307692 -0.072 -0.0338462 0.00307692 -0.072 -0.0276923 0.00307692 -0.078 -0.0276923 0.00307692 -0.072
          -0.0215385 0.00307692 -0.078 -0.0215385 0.00307692 -0.072 -0.0153846 0.00307692 -0.078 -0.0153846 0.00307692 -0.072
          -0.00923077 0.00307692 -0.078 -0.00923077 0.00307692 -0.072 -0.00307692 0.00307692 -0.078 -0.00307692 0.00307692 -0.072
          -0.04 0.00923077 -0.078 -0.0338462 0.00923077 -0.078 -0.04 0.00923077 -0.072 -0.0338462 0.00923077 -0.072
          -0.0276923 0.00923077 -0.078 -0.0276923 0.00923077 -0.072 -0.0215385 0.00923077 -0.078 -0.0215385 0.00923077 -0.072
          -0.0153846 0.00923077 -0.078 -0.0153846 0.00923077 -0.072 -0.00923077 0.00923077 -0.078 -0.00923077 0.00923077 -0.072
          -0.00307692 0.00923077 -0.078 -0.00307692 0.00923077 -0.072 -0.04 0.0153846 -0.078 -0.0338462 0.0153846 -0.078
          -0.04 0.0153846 -0.072 -0.0338462 0.0153846 -0.072 -0.0276923 0.0153846 -0.078 -0.0276923 0.0153846 -0.072
          -0.0215385 0.0153846 -0.078 -0.0215385 0.0153846 -0.072 -0.0153846 0.0153846 -0.078 -0.0153846 0.0153846 -0.072
          -0.00923077 0.0153846 -0.078 -0.00923077 0.0153846 -0.072 -0.00307692 0.0153846 -0.078 -0.00307692 0.0153846 -0.072
          -0.04 0.0215385 -0.078 -0.0338462 0.0215385 -0.078 -0.04 0.0215385 -0.072 -0.0338462 0.0215385 -0.072
          -0.0276923 0.0215385 -0.078 -0.0276923 0.0215385 -0.072 -0.0215385 0.0215385 -0.078 -0.0215385 0.0215385 -0.072
          -0.0153846 0.0215385 -0.078 -0.0153846 0.0215385 -0.072 -0.00923077 0.0215385 -0.078 -0.00923077 0.0215385 -0.072
          -0.00307692 0.0215385 -0.078 -0.00307692 0.0215385 -0.072 -0.04 0.0276923 -0.078 -0.0338462 0.0276923 -0.078
          -0.04 0.0276923 -0.072 -0.0338462 0.0276923 -0.072 -0.0276923 0.0276923 -0.078 -0.0276923 0.0276923 -0.072
          -0.0215385 0.0276923 -0.078 -0.0215385 0.0276923 -0.072 -0.0153846 0.0276923 -0.078 -0.0153846 0.0276923 -0.072
          -0.00923077 0.0276923 -0.078 -0.00923077 0.0276923 -0.072 -0.00307692 0.0276923 -0.078 -0.00307692 0.0276923 -0.072
          -0.04 0.0338462 -0.078 -0.0338462 0.0338462 -0.078 -0.04 0.0338462 -0.072 -0.0338462 0.0338462 -0.072
          -0.0276923 0.0338462 -0.078 -0.0276923 0.0338462 -0.072 -0.0215385 0.0338462 -0.078 -0.0215385 0.0338462 -0.072
          -0.0153846 0.0338462 -0.078 -0.0153846 0.0338462 -0.072 -0.00923077 0.0338462 -0.078 -0.00923077 0.0338462 -0.072
          -0.00307692 0.0338462 -0.078 -0.00307692 0.0338462 -0.072 -0.04 0.04 -0.078 -0.0338462 0.04 -0.078
          -0.04 0.04 -0.072 -0.0338462 0.04 -0.072 -0.0276923 0.04 -0.078 -0.0276923 0.04 -0.072
          -0.0215385 0.04 -0.078 -0.0215385 0.04 -0.072 -0.0153846 0.04 -0.078 -0.0153846 0.04 -0.072
          -0.00923077 0.04 -0.078 -0.00923077 0.04 -0.072 -0.00307692 0.04 -0.078 -0.00307692 0.04 -0.072
          -0.04 -0.04 -0.066 -0.0338462 -0.04 -0.066 -0.04 -0.0338462 -0.066 -0.0338462 -0.0338462 -0.066
          -0.0276923 -0.04 -0.066 -0.0276923 -0.0338462 -0.066 -0.0215385 -0.04 -0.066 -0.0215385 -0.0338462 -0.066
          -0.0153846 -0.04 -0.066 -0.0153846 -0.0338462 -0.066 -0.00923077 -0.04 -0.066 -0.00923077 -0.0338462 -0.066
          -0.00307692 -0.04 -0.066 -0.00307692 -0.0338462 -0.066 -0.04 -0.0276923 -0.066 -0.0338462 -0.0276923 -0.066
          -0.0276923 -0.0276923 -0.066 -0.0215385 -0.0276923 -0.066 -0.0153846 -0.0276923 -0.066 -0.00923077 -0.0276923 -0.066
          -0.00307692 -0.0276923 -0.066 -0.04 -0.0215385 -0.066 -0.0338462 -0.0215385 -0.066 -0.0276923 -0.0215385 -0.066
          -0.0215385 -0.0215385 -0.066 -0.0153846 -0.0215385 -0.066 -0.00923077 -0.0215385 -0.066 -0.00307692 -0.0215385 -0.066
          -0.04 -0.0153846 -0.066 -0.0338462 -0.0153846 -0.066 -0.0276923 -0.0153846 -0.066 -0.0215385 -0.0153846 -0.066
          -0.0153846 -0.0153846 -0.066 -0.00923077 -0.0153846 -0.066 -0.00307692 -0.0153846 -0.066 -0.04 -0.00923077 -0.066
          -0.0338462 -0.00923077 -0.066 -0.0276923 -0.00923077 -0.066 -0.0215385 -0.00923077 -0.066 -0.0153846 -0.00923077 -0.066
          -0.00923077 -0.00923077 -0.066 -0.00307692 -0.00923077 -0.066 -0.04 -0.00307692 -0.066 -0.0338462 -0.00307692 -0.066
          -0.0276923 -0.00307692 -0.066 -0.0215385 -0.00307692 -0.066 -0.0153846 -0.00307692 -0.066 -0.00923077 -0.00307692 -0.066