<?xml version="1.0"?>
<VTKFile type="UnstructuredGrid" version="0.1" byte_order="LittleEndian">
  <UnstructuredGrid>
    <Piece NumberOfCells="960" NumberOfPoints="1296">
      <CellData Scalars="p (Pa)">
        <DataArray type="Float32" Name="p (Pa)" NumberOfComponents="1" format="ascii">
          34781.8 34414.7 33783.4 33104.5 32669.1 32664.2 32943 33190.1 34710.6 34314.1 33621.1 32852.9
          32338.8 32334.8 32670.5 32962.6 34651 34230.3 33483.5 32628.6 32020.3 31997.4 32392.3 32733.8
          34699.1 34299.7 33598.3 32808.1 32239.7 32146.7 32496.1 32819.8 34878.4 34539.5 33959.5 33337.3
          32923.9 32856.3 33097.6 33334.2 35143 34882 34450.2 34015 33756.9 33736.5 33897.7 34052.7
          35401.1 35208.7 34901 34609.6 34456.9 34467.8 34583.9 34687.8 35558.5 35405.1 35165.5 34948.7
          34846.5 34870.7 34966.9 35047.5 34007.4 33461.4 32494.1 31408.9 30701.2 30773.1 31320.4 31766.1
          33879 33267.6 32150 30819.2 29872.4 29993.3 30746.8 31328.2 33756.4 33081.9 31809.7 30185.7
          28866.3 28999.5 30054.1 30823.4 33799.4 33157.1 31975.2 30536.6 29389.1 29132.9 30091.4 30855.4
          34038.4 33493.1 32527.2 31448.7 30749.6 30626.1 31185.7 31693.1 34412.2 33997.3 33296.2 32585.8
          32217.1 32224.2 32551 32847.9 34785 34486.7 34006.1 33560.1 33367.9 33427.5 33643.4 33825.2
          35014 34781.7 34419.5 34103.1 33984.5 34057.4 34227.6 34361.7 32525.2 31570.9 29790.9 27632.1
          26143.5 26516.4 27869.3 28854.3 32252.6 31120.2 28878.1 25812.4 23264.3 24049 26345.9 27827.7
          31962.5 30631.1 27810.1 23273.5 18120.9 19673.4 24073.2 26447.4 31981.4 30715.3 28180.6 24615.2
          21109.3 19191.8 23598.5 26184.9 32341.4 31254.9 29183.2 26636.2 25205.5 24724.1 26523.9 27982.9
          32960.8 32146.9 30696.1 29163.4 28647.9 28773 29604.9 30321.4 33597.7 33036.7 32106.8 31251
          31037.6 31268 31753.1 32137.9 33990.7 33570.9 32909.5 32352.6 32235.7 32457.5 32816.1 33079.8
          30336.8 28665.6 25323.4 20782.6 17290.9 18699.2 22119.1 24282.7 29774.3 27629.6 22842.4 14632.4
          5418.1 9997.79 17994.7 21913.7 29120.2 26346 19142.8 557.149 -40002.9 -18633.4 9647.31 18069.8
          29069.5 26460.8 20508 9950.08 -4258.78 -31604.9 5167.26 16360.4 29601.4 27276.5 22125.3 13908.7
          12164.3 9150.72 16082.5 20916 30660.3 28951.9 25517.3 21201.6 21472.7 22126.1 24281.3 26103.6
          31784.9 30681.4 28719.3 26807.8 26926 27705 28782 29599 32476 31698.1 30428.3 29367
          29397.5 30008.4 30750.3 31260.5 27587.2 24871.8 18996.9 9844.73 1732.73 6100.18 14016.8 18247.9
          26532.6 22684 12586.5 -11900.2 -56913.3 -27390.2 3775.64 13395 25191.8 19432.9 -2170.31 -144542
          -816896 -359686 -30305.3 3258.81 24999.4 19725.9 5154.19 -30486.6 -97714.1 -683192 -74532.1 -5899.67
          25708.6 20573.6 5001.35 -46178.1 -20375.8 -42886.8 -12615.2 7811.84 27486.1 23836.7 14400.2 -6530.97
          6786.2 10325.7 15125.3 19946.7 29424.6 27295.1 22934.3 17580 20161.4 22672.9 24811.5 26446.5
          30591.5 29214.3 26794.6 24629.5 25344.7 26869.4 28267.9 29172 24653 20791.4 11964.9 -3106.42
          -12812.9 -7319.08 5261.84 11702.8 22964.1 16953 -1359.55 -63767.6 -97149.9 -69895.1 -12069.8 4134.48
          20635.1 9917.22 -50839.4 -806520 -838216 -840682 -99212.5 -16813.5 20238.7 10445.3 -24283.9 -148732
          -206934 -225828 -823862 -70447.4 21116.5 10042.2 -52191.6 -804083 -98149.8 -55938.7 -184517 -16053.7
          23926.5 16575.7 -13835.2 -241816 -24959.7 -1140.43 -994.023 13015 26993.9 23293.3 13789.2 -6624.33
          10112.9 17518.6 20751.5 23622.7 28766.1 26614.3 22402 17857.6 20601.9 23824.7 26063.3 27431.1
          21979 17298.1 6795.32 -10676.9 -23541.8 -19748.8 -3442.89 5039.59 19762 12391.8 -8944.29 -74737.3
          -106348 -51331.3 -17390.9 -2294.38 16696.2 3109.91 -67330.1 -822374 -841882 -204329 -78550.4 -21365.5
          16275.8 1615.43 -76094.8 -861033 -898520 -844484 -622324 -59210.5 17969.9 3420.33 -79729.9 -850721
          -191800 -94994.3 -54788.4 -8313.53 21660.5 11331.8 -47426.7 -780171 -66877 -8177.6 4866.88 13489.7
          25584.8 20864.5 6768.05 -37538.3 2033.65 14888.2 20211.9 23059.5 27763.4 25183.7 19786.3 12981.1
          17749.5 22328.3 25263.9 26814.6 19616.9 14075.4 2084.5 -15881.2 -43570.7 -87913.7 -23933.3 -5544.27
          16780.5 7671.3 -15869.9 -50982.5 -122642 -111353 -33668.5 -12328 13045.4 -4509.3 -78461.7 -192347
          -840587 -887402 -97466.6 -28775.5 14372 409.037 -48050.8 -207537 -850170 -855273 -98157.2 -23286.5
          17645 5141.94 -61442.6 -821565 -604384 -84350.4 -16203.6 1281.38 22188.8 15246.4 -6694.76 -78483.5
          -43140.6 -2850.16 10704.8 16209.4 26014.4 22514.8 14550.1 2509.17 8838.86 16912.1 21632.1 23930.3
          28059.6 25973.2 22084.4 18291.5 19989.5 23280.1 25839.8 27200.2 17814.2 10833.2 -5663.88 -30253.7
          -111371 -843137 -93945.7 -24975.5 13928 -972.798 -61208 -107214 -170985 -211281 -66931.3 -36271.6
          7978.42 -44026.5 -780912 -853002 -844847 -858203 -121273 -87947.1 13419.3 -3195.22 -71923.3 -179493
          -841083 -144360 -40608.2 -23750.2 19069.2 10949.9 -12184.7 -74659.6 -87495.5 -23752.5 -2124.24 4840.08
          23890.8 19664.9 10226.6 -4176.49 -2731.35 8525.02 15377.8 18443.4 27328.2 25072.5 20832.8 16393.5
          17214.4 20747.1 23658.6 25188.7 29084.3 27643.5 25212.2 23146 23527.9 25331.8 27066.3 28052.1
          17873.9 11372.8 -3221.22 -29174 -119394 -871562 -126072 -43194.1 14735 3689.88 -25450.8 -71422
          -195102 -869335 -151889 -106337 11171.7 -10220.4 -98712.6 -345860 -843430 -242017 -167804 -816880
          15399.2 3820.48 -28750.1 -103244 -137486 -60142.8 -39838 -66630.3 20990.8 15227.9 2048.47 -18831.9
          -20221.8 -6086.42 1927.03 3388.94 25579.3 22679 17060.7 10628.4 10559.7 14643 18092.1 19725.6
          28658.2 27114.2 24458.6 22007.4 21977.8 23620.9 25325.5 26297.4 30181.1 29177.6 27567.6 26244.2
          26220.7 27174.7 28269.4 28937.7 18673.5 12148.3 -3155.89 -26441 -66420.5 -176149 -79031.8 -38664
          15576.2 2640.34 -46659.7 -107400 -190849 -873965 -205912 -79614.2 11327.2 -29364.9 -571010 -892594
          -846879 -847033 -841846 -254551 16468.7 1825.62 -71243.4 -768152 -133878 -94048.4 -72075.8 -32248.7
          22324.5 16558.1 486.453 -46255.7 -14911 -4555 2419.91 7866.54 26792.2 24273.5 19163.6 12370.5
          14270.3 17120.1 19740.8 21403.9 29651.9 28416.1 26290.9 24270.6 24271.8 25320.8 26539 27314.5
          31029.5 30256.1 29024.8 27989.5 27870.3 28453.4 29215.8 29714.4 20374.7 14948.7 2448.32 -19970.7
          -52517.7 -125604 -102594 -34760.9 18399.7 9913.71 -14843.7 -87937.3 -175546 -862480 -833573 -92101.6
          16414.8 1280.57 -77487.4 -839614 -838489 -879570 -154393 -48513.2 19257 9104.39 -36670 -492108
          -114704 -83699.4 -25948.4 -6726.07 23845.2 19102.5 6396.62 -27727.9 -9023.13 -829.044 8474.7 13318.6
          27743.4 25588.8 21280.8 15731.6 16740.9 18987.6 21634.5 23264.5 30324.4 29272.1 27472.1 25755.8
          25642.8 26451.1 27530.2 28241.3 31578.3 30929.7 29898.7 29017.6 28860.5 29294 29924.5 30353.4
          21831.3 17177.6 6473.99 -13160.3 -43240.5 -48600.3 -29856.9 -11115.2 20571.1 14368.9 -1891.67 -41186.1
          -148385 -165417 -88343.5 -22638.9 19611.1 11370.7 -15013.5 -121015 -838676 -844014 -86394.6 -16273.4
          21400.5 14798.9 -3926.46 -55450.9 -91813.1 -74051.1 -12771 3540.55 24936.8 21204.1 12853.9 -137.454
          -2825.76 2497.27 12255.1 16944.1 28313 26445.4 22948.6 19100 18570.9 20378.1 23093.5 24743.8
          30672 29725.6 28142.4 26690.4 26448.3 27181 28256.7 28968.5 31842.8 31255.9 30330.5 29548
          29392.2 29798.6 30408 30825.2 22466.3 17862 6642.3 -17980.4 -80780.7 -31155.2 -8511.13 1879.29
          21307.4 15155.9 -3074.75 -76382.8 -816926 -114326 -24974.7 -2513 20364.4 12364.8 -14436.5 -127028
          -837568 -757970 -57507.8 -3263.67 21695.2 14663.2 -7101 -77828.9 -93500.1 -60082.1 -4877.23 9228.44
          25023.9 21038.5 11723 -3531.52 -2933.64 5105.35 14839.1 19309.9 28350.3 26395.5 22665.6 18552.1
          18703.9 21157.8 24075.9 25757.6 30701.4 29737.4 28117.8 26663.6 26606.7 27530.6 28703 29446.8
          31870.4 31287 30369.9 29616.7 29538.2 30022.3 30677.8 31113.1 22534.8 17822.5 6566.76 -14277
          -32671.8 -14400.7 446.492 7677.52 21168.9 14321.3 -6695.78 -76376.1 -134037 -39518.6 -6466.19 5392.4
          19667.2 8284.14 -54498.9 -779443 -836754 -106435 -13607.3 5372.5 20717.2 9604.76 -54528.1 -824774
          -114007 -23311.8 3731.25 12920.9 24459.1 19170.9 3205.93 -46665.8 -8106.5 8121.31 16802.1 20702.7
          28077.9 25770.8 20902.4 14286.8 17588.5 21511.2 24619.6 26285.4 30560 29506.3 27674.9 25974.9
          26349.6 27598.7 28883.4 29654.4 31774.1 31165.1 30201.1 29423.6 29453.3 30044.5 30756 31211.7
        </DataArray>
        <DataArray type="Float32" Name="saturation" NumberOfComponents="1" format="ascii">
          0.299519 0.299139 0.298495 0.297812 0.29738 0.297375 0.297651 0.297897 0.299445 0.299036 0.29833 0.297562
          0.297055 0.297051 0.297381 0.297671 0.299383 0.29895 0.298192 0.29734 0.296744 0.296722 0.297107 0.297444
          0.299433 0.299021 0.298307 0.297517 0.296958 0.296867 0.29721 0.297529 0.299619 0.299268 0.298673 0.298045
          0.297632 0.297565 0.297805 0.298042 0.299896 0.299623 0.299176 0.29873 0.298468 0.298447 0.298611 0.298768
          0.300167 0.299965 0.299643 0.299341 0.299183 0.299194 0.299314 0.299421 0.300333 0.300171 0.299919 0.299693
          0.299586 0.299611 0.299712 0.299796 0.298722 0.298169 0.297208 0.296154 0.295481 0.295549 0.296069 0.296498
          0.298592 0.297975 0.296871 0.295593 0.294707 0.294819 0.295524 0.296077 0.298467 0.297789 0.29654 0.294998
          0.293787 0.293907 0.294875 0.295597 0.298511 0.297864 0.2967 0.295326 0.294262 0.294028 0.29491 0.295627
          0.298754 0.298201 0.29724 0.296192 0.295527 0.29541 0.295941 0.296427 0.299137 0.298712 0.298004 0.297298
          0.296936 0.296943 0.297263 0.297557 0.299522 0.299214 0.298721 0.298269 0.298075 0.298135 0.298353 0.298537
          0.299761 0.299519 0.299144 0.29882 0.298699 0.298773 0.298947 0.299085 0.297238 0.29631 0.294632 0.292685
          0.291396 0.291715 0.292895 0.293776 0.296971 0.295878 0.293797 0.291115 0.289016 0.28965 0.291569 0.292858
          0.296688 0.295415 0.292842 0.289023 0.2851 0.28624 0.28967 0.291656 0.296706 0.295495 0.293171 0.290115
          0.287326 0.285882 0.289285 0.291431 0.297058 0.296007 0.294074 0.291818 0.290605 0.290205 0.291721 0.292995
          0.297669 0.296868 0.295476 0.294056 0.293589 0.293702 0.29446 0.295125 0.298307 0.297744 0.296828 0.296003
          0.2958 0.296019 0.296485 0.296859 0.298705 0.29828 0.297618 0.297069 0.296954 0.297172 0.297525 0.297787
          0.295139 0.293605 0.290703 0.287076 0.284504 0.28552 0.288108 0.289841 0.294616 0.292683 0.288679 0.282659
          0.276914 0.279652 0.285008 0.287948 0.294017 0.291569 0.285846 0.27423 0.257897 0.26539 0.279435 0.285063
          0.293971 0.291667 0.286867 0.279623 0.271769 0.26061 0.27677 0.283848 0.294457 0.292373 0.288113 0.282173
          0.281026 0.279129 0.283654 0.287178 0.295443 0.293864 0.290866 0.287397 0.287605 0.288114 0.28984 0.291362
          0.296516 0.295463 0.293654 0.291966 0.292068 0.292749 0.29371 0.294455 0.29719 0.296432 0.295225 0.294242
          0.29427 0.294833 0.295528 0.296012 0.292646 0.290327 0.285739 0.279557 0.274859 0.277308 0.282245 0.285192
          0.291729 0.288553 0.281301 0.268215 0.253152 0.262077 0.275983 0.281831 0.290593 0.286061 0.272813 0.23748
          0.209325 0.221271 0.261054 0.275695 0.290433 0.286279 0.276763 0.260992 0.244471 0.211634 0.249006 0.270971
          0.291027 0.286917 0.276675 0.256063 0.264701 0.257025 0.267902 0.278318 0.292557 0.289478 0.282502 0.27067
          0.27771 0.279857 0.282994 0.286444 0.294295 0.29239 0.288752 0.28471 0.286605 0.288545 0.290277 0.291655
          0.295378 0.294103 0.291955 0.290126 0.290721 0.292019 0.293249 0.294064 0.290146 0.287082 0.280898 0.272341
          0.267817 0.270297 0.276824 0.280729 0.288776 0.284264 0.273228 0.251455 0.244572 0.250031 0.268141 0.276184
          0.286964 0.279602 0.254759 0.209485 0.209006 0.20897 0.244208 0.266128 0.286663 0.279932 0.26321 0.236959
          0.230928 0.229348 0.20922 0.249906 0.287331 0.27968 0.254392 0.209523 0.244394 0.253403 0.233016 0.266442
          0.289551 0.283999 0.267376 0.228122 0.26296 0.273341 0.273417 0.281581 0.292127 0.289039 0.282093 0.270625
          0.279724 0.284666 0.287052 0.289304 0.293696 0.291799 0.288331 0.28491 0.286938 0.289468 0.291328 0.292509
          0.287999 0.284509 0.277715 0.268758 0.263487 0.264947 0.272173 0.276697 0.286306 0.281174 0.269543 0.248962
          0.242993 0.254625 0.265892 0.27275 0.284083 0.275613 0.250617 0.209242 0.208953 0.231158 0.248153 0.264316
          0.283789 0.274796 0.248671 0.208678 0.208164 0.208915 0.212907 0.25257 0.284991 0.275785 0.247909 0.208825
          0.23231 0.244958 0.253703 0.269833 0.287751 0.280492 0.255707 0.209903 0.250722 0.269896 0.276599 0.281894
          0.290923 0.287138 0.277699 0.258666 0.275023 0.282833 0.286643 0.288852 0.292801 0.290586 0.286324 0.281559
          0.284832 0.288273 0.290653 0.291972 0.286197 0.282284 0.27505 0.266513 0.256822 0.246279 0.263341 0.271142
          0.284143 0.278234 0.266518 0.254719 0.240457 0.242181 0.259918 0.268028 0.281601 0.271646 0.248172 0.232258
          0.208972 0.208313 0.244515 0.261587 0.282483 0.274151 0.255531 0.230875 0.208833 0.20876 0.244393 0.263583
          0.284757 0.276756 0.252018 0.209254 0.213315 0.246974 0.26638 0.274616 0.288163 0.283077 0.270592 0.248167
          0.256949 0.27247 0.280095 0.283742 0.291286 0.28842 0.282604 0.275282 0.278939 0.284236 0.287729 0.289554
          0.293063 0.291251 0.288081 0.285223 0.286476 0.289029 0.291138 0.292307 0.284878 0.280176 0.271085 0.261072
          0.242178 0.208935 0.245149 0.262954 0.282186 0.273428 0.252075 0.24285 0.234409 0.230551 0.250709 0.259069
          0.278418 0.256688 0.209891 0.208792 0.20891 0.208718 0.240658 0.246273 0.281847 0.272297 0.249577 0.233521
          0.208964 0.237503 0.257712 0.263409 0.285792 0.28025 0.26809 0.248979 0.24636 0.263408 0.272837 0.276583
          0.289522 0.286233 0.279795 0.271809 0.272529 0.278748 0.283167 0.285334 0.292419 0.290494 0.287114 0.283871
          0.28445 0.287049 0.289333 0.290591 0.293984 0.292695 0.29061 0.288921 0.289228 0.29071 0.29219 0.293057
          0.284921 0.280518 0.272284 0.261447 0.240938 0.20853 0.23996 0.256934 0.282729 0.275935 0.262779 0.249688
          0.231999 0.208561 0.236576 0.242995 0.28039 0.268963 0.244295 0.221923 0.20893 0.228107 0.234753 0.209326
          0.283182 0.276008 0.261595 0.243513 0.238391 0.252338 0.257948 0.250779 0.287235 0.283064 0.275031 0.265311
          0.264761 0.270882 0.274965 0.275767 0.290918 0.288549 0.284341 0.280047 0.280004 0.282666 0.285079 0.286278
          0.293599 0.292232 0.289986 0.288021 0.287998 0.289303 0.290705 0.291527 0.294994 0.294069 0.292628 0.291482
          0.291462 0.292285 0.29325 0.293851 0.285501 0.281016 0.272316 0.262419 0.250828 0.233865 0.248053 0.258312
          0.283304 0.275354 0.255925 0.24282 0.2324 0.208497 0.231018 0.247932 0.280489 0.26138 0.214121 0.208243
          0.20888 0.208878 0.208953 0.227209 0.283924 0.27491 0.249728 0.210101 0.238874 0.24513 0.249543 0.260392
          0.28827 0.283986 0.274192 0.256041 0.266919 0.271623 0.275233 0.278351 0.291953 0.289834 0.285861 0.28116
          0.282415 0.284383 0.28629 0.287552 0.294504 0.293381 0.291522 0.289831 0.289832 0.290701 0.291734 0.292407
          0.295792 0.295064 0.29393 0.293001 0.292895 0.293415 0.294104 0.294561 0.286766 0.282874 0.275249 0.264859
          0.254304 0.240027 0.243624 0.259559 0.285302 0.2796 0.266948 0.246275 0.233927 0.208657 0.209075 0.245489
          0.283886 0.274616 0.248376 0.208986 0.209002 0.20842 0.236277 0.255401 0.28593 0.279101 0.258942 0.216309
          0.241654 0.247104 0.262598 0.270577 0.289485 0.285816 0.277481 0.261957 0.269506 0.273502 0.278717 0.281781
          0.292783 0.290926 0.287457 0.283411 0.284115 0.285732 0.287731 0.289016 0.295127 0.294155 0.292545 0.291067
          0.290972 0.291659 0.292596 0.293225 0.296317 0.295697 0.294731 0.293924 0.293781 0.294175 0.294755 0.295155
          0.287884 0.284424 0.277526 0.267666 0.25692 0.255377 0.261209 0.268562 0.286915 0.282481 0.272955 0.257536
          0.237002 0.235015 0.246197 0.263828 0.286193 0.280517 0.266876 0.240697 0.209 0.208922 0.246573 0.266351
          0.28755 0.282772 0.271933 0.25353 0.245542 0.24911 0.267835 0.275852 0.290381 0.287398 0.281475 0.273863
          0.272482 0.275275 0.281085 0.284258 0.293289 0.291654 0.288764 0.285814 0.285426 0.286769 0.288879 0.290221
          0.295454 0.294571 0.293137 0.291865 0.291657 0.29229 0.293239 0.293879 0.296572 0.296008 0.295133 0.294408
          0.294265 0.294639 0.295206 0.295598 0.288381 0.284913 0.277625 0.265653 0.247693 0.260763 0.269742 0.274939
          0.287478 0.283015 0.272357 0.248609 0.209325 0.241713 0.262954 0.27264 0.286758 0.281156 0.26712 0.239824
          0.209016 0.210272 0.253 0.272262 0.287778 0.28268 0.2704 0.248304 0.245231 0.252353 0.271466 0.279177
          0.290453 0.287271 0.280742 0.272129 0.272428 0.276735 0.282799 0.28597 0.293322 0.291611 0.288539 0.285413
          0.285524 0.287363 0.289672 0.291068 0.295481 0.294582 0.293115 0.291842 0.291793 0.292596 0.293639 0.294315
          0.296599 0.296037 0.29517 0.294471 0.294399 0.294846 0.295459 0.295872 0.288435 0.284884 0.277581 0.267188
          0.26025 0.267135 0.274171 0.278238 0.287371 0.282449 0.270592 0.248611 0.238853 0.258047 0.270701 0.276899
          0.286235 0.278602 0.253779 0.209915 0.209028 0.242979 0.267474 0.276888 0.287026 0.279409 0.253771 0.209206
          0.241763 0.263574 0.275958 0.281519 0.289986 0.285867 0.275666 0.255923 0.269929 0.278504 0.284158 0.287015
          0.29308 0.29108 0.287167 0.282426 0.284717 0.287635 0.290118 0.291517 0.295348 0.29437 0.292723 0.291252
          0.291572 0.292656 0.293802 0.294506 0.296506 0.295921 0.295012 0.294294 0.294321 0.294867 0.295533 0.295965
        </DataArray>
        <DataArray type="Float32" Name="process rank" NumberOfComponents="1" format="ascii">
          0 0 0 0 0 0 0 0 0 0 0 0
          0 0 0 0 0 0 0 0 0 0 0 0
          0 0 0 0 0 0 0 0 0 0 0 0
          0 0 0 0 0 0 0 0 0 0 0 0
          0 0 0 0 0 0 0 0 0 0 0 0
          0 0 0 0 0 0 0 0 0 0 0 0
          0 0 0 0 0 0 0 0 0 0 0 0
          0 0 0 0 0 0 0 0 0 0 0 0
          0 0 0 0 0 0 0 0 0 0 0 0
          0 0 0 0 0 0 0 0 0 0 0 0
          0 0 0 0 0 0 0 0 0 0 0 0
          0 0 0 0 0 0 0 0 0 0 0 0
          0 0 0 0 0 0 0 0 0 0 0 0
          0 0 0 0 0 0 0 0 0 0 0 0
          0 0 0 0 0 0 0 0 0 0 0 0
          0 0 0 0 0 0 0 0 0 0 0 0
          0 0 0 0 0 0 0 0 0 0 0 0
          0 0 0 0 0 0 0 0 0 0 0 0
          0 0 0 0 0 0 0 0 0 0 0 0
          0 0 0 0 0 0 0 0 0 0 0 0
          0 0 0 0 0 0 0 0 0 0 0 0
          0 0 0 0 0 0 0 0 0 0 0 0
          0 0 0 0 0 0 0 0 0 0 0 0
          0 0 0 0 0 0 0 0 0 0 0 0
          0 0 0 0 0 0 0 0 0 0 0 0
          0 0 0 0 0 0 0 0 0 0 0 0
          0 0 0 0 0 0 0 0 0 0 0 0
          0 0 0 0 0 0 0 0 0 0 0 0
          0 0 0 0 0 0 0 0 0 0 0 0
          0 0 0 0 0 0 0 0 0 0 0 0
          0 0 0 0 0 0 0 0 0 0 0 0
          0 0 0 0 0 0 0 0 0 0 0 0
          0 0 0 0 0 0 0 0 0 0 0 0
          0 0 0 0 0 0 0 0 0 0 0 0
          0 0 0 0 0 0 0 0 0 0 0 0
          0 0 0 0 0 0 0 0 0 0 0 0
          0 0 0 0 0 0 0 0 0 0 0 0
          0 0 0 0 0 0 0 0 0 0 0 0
          0 0 0 0 0 0 0 0 0 0 0 0
          0 0 0 0 0 0 0 0 0 0 0 0
          0 0 0 0 0 0 0 0 0 0 0 0
          0 0 0 0 0 0 0 0 0 0 0 0
          0 0 0 0 0 0 0 0 0 0 0 0
          0 0 0 0 0 0 0 0 0 0 0 0
          0 0 0 0 0 0 0 0 0 0 0 0
          0 0 0 0 0 0 0 0 0 0 0 0
          0 0 0 0 0 0 0 0 0 0 0 0
          0 0 0 0 0 0 0 0 0 0 0 0
          0 0 0 0 0 0 0 0 0 0 0 0
          0 0 0 0 0 0 0 0 0 0 0 0
          0 0 0 0 0 0 0 0 0 0 0 0
          0 0 0 0 0 0 0 0 0 0 0 0
          0 0 0 0 0 0 0 0 0 0 0 0
          0 0 0 0 0 0 0 0 0 0 0 0
          0 0 0 0 0 0 0 0 0 0 0 0
          0 0 0 0 0 0 0 0 0 0 0 0
          0 0 0 0 0 0 0 0 0 0 0 0
          0 0 0 0 0 0 0 0 0 0 0 0
          0 0 0 0 0 0 0 0 0 0 0 0
          0 0 0 0 0 0 0 0 0 0 0 0
          0 0 0 0 0 0 0 0 0 0 0 0
          0 0 0 0 0 0 0 0 0 0 0 0
          0 0 0 0 0 0 0 0 0 0 0 0
          0 0 0 0 0 0 0 0 0 0 0 0
          0 0 0 0 0 0 0 0 0 0 0 0
          0 0 0 0 0 0 0 0 0 0 0 0
          0 0 0 0 0 0 0 0 0 0 0 0
          0 0 0 0 0 0 0 0 0 0 0 0
          0 0 0 0 0 0 0 0 0 0 0 0
          0 0 0 0 0 0 0 0 0 0 0 0
          0 0 0 0 0 0 0 0 0 0 0 0
          0 0 0 0 0 0 0 0 0 0 0 0
          0 0 0 0 0 0 0 0 0 0 0 0
          0 0 0 0 0 0 0 0 0 0 0 0
          0 0 0 0 0 0 0 0 0 0 0 0
          0 0 0 0 0 0 0 0 0 0 0 0
          0 0 0 0 0 0 0 0 0 0 0 0
          0 0 0 0 0 0 0 0 0 0 0 0
          0 0 0 0 0 0 0 0 0 0 0 0
          0 0 0 0 0 0 0 0 0 0 0 0
        </DataArray>
      </CellData>
      <Points>
        <DataArray type="Float32" Name="Coordinates" NumberOfComponents="3" format="ascii">
          -0.04 -0.04 -0.15 -0.03 -0.04 -0.15 -0.04 -0.03 -0.15 -0.03 -0.03 -0.15
          -0.04 -0.04 -0.14 -0.03 -0.04 -0.14 -0.04 -0.03 -0.14 -0.03 -0.03 -0.14
          -0.02 -0.04 -0.15 -0.02 -0.03 -0.15 -0.02 -0.04 -0.14 -0.02 -0.03 -0.14
          -0.01 -0.04 -0.15 -0.01 -0.03 -0.15 -0.01 -0.04 -0.14 -0.01 -0.03 -0.14
          -1.73472e-18 -0.04 -0.15 -1.73472e-18 -0.03 -0.15 -1.73472e-18 -0.04 -0.14 -1.73472e-18 -0.03 -0.14
          0.01 -0.04 -0.15 0.01 -0.03 -0.15 0.01 -0.04 -0.14 0.01 -0.03 -0.14
          0.02 -0.04 -0.15 0.02 -0.03 -0.15 0.02 -0.04 -0.14 0.02 -0.03 -0.14
          0.03 -0.04 -0.15 0.03 -0.03 -0.15 0.03 -0.04 -0.14 0.03 -0.03 -0.14
          0.04 -0.04 -0.15 0.04 -0.03 -0.15 0.04 -0.04 -0.14 0.04 -0.03 -0.14
          -0.04 -0.02 -0.15 -0.03 -0.02 -0.15 -0.04 -0.02 -0.14 -0.03 -0.02 -0.14
          -0.02 -0.02 -0.15 -0.02 -0.02 -0.14 -0.01 -0.02 -0.15 -0.01 -0.02 -0.14
          -1.73472e-18 -0.02 -0.15 -1.73472e-18 -0.02 -0.14 0.01 -0.02 -0.15 0.01 -0.02 -0.14
          0.02 -0.02 -0.15 0.02 -0.02 -0.14 0.03 -0.02 -0.15 0.03 -0.02 -0.14
          0.04 -0.02 -0.15 0.04 -0.02 -0.14 -0.04 -0.01 -0.15 -0.03 -0.01 -0.15
          -0.04 -0.01 -0.14 -0.03 -0.01 -0.14 -0.02 -0.01 -0.15 -0.02 -0.01 -0.14
          -0.01 -0.01 -0.15 -0.01 -0.01 -0.14 -1.73472e-18 -0.01 -0.15 -1.73472e-18 -0.01 -0.14
          0.01 -0.01 -0.15 0.01 -0.01 -0.14 0.02 -0.01 -0.15 0.02 -0.01 -0.14
          0.03 -0.01 -0.15 0.03 -0.01 -0.14 0.04 -0.01 -0.15 0.04 -0.01 -0.14
          -0.04 -1.73472e-18 -0.15 -0.03 -1.73472e-18 -0.15 -0.04 -1.73472e-18 -0.14 -0.03 -1.73472e-18 -0.14
          -0.02 -1.73472e-18 -0.15 -0.02 -1.73472e-18 -0.14 -0.01 -1.73472e-18 -0.15 -0.01 -1.73472e-18 -0.14
          -1.73472e-18 -1.73472e-18 -0.15 -1.73472e-18 -1.73472e-18 -0.14 0.01 -1.73472e-18 -0.15 0.01 -1.73472e-18 -0.14
          0.02 -1.73472e-18 -0.15 0.02 -1.73472e-18 -0.14 0.03 -1.73472e-18 -0.15 0.03 -1.73472e-18 -0.14
          0.04 -1.73472e-18 -0.15 0.04 -1.73472e-18 -0.14 -0.04 0.01 -0.15 -0.03 0.01 -0.15
          -0.04 0.01 -0.14 -0.03 0.01 -0.14 -0.02 0.01 -0.15 -0.02 0.01 -0.14
          -0.01 0.01 -0.15 -0.01 0.01 -0.14 -1.73472e-18 0.01 -0.15 -1.73472e-18 0.01 -0.14
          0.01 0.01 -0.15 0.01 0.01 -0.14 0.02 0.01 -0.15 0.02 0.01 -0.14
          0.03 0.01 -0.15 0.03 0.01 -0.14 0.04 0.01 -0.15 0.04 0.01 -0.14
          -0.04 0.02 -0.15 -0.03 0.02 -0.15 -0.04 0.02 -0.14 -0.03 0.02 -0.14
          -0.02 0.02 -0.15 -0.02 0.02 -0.14 -0.01 0.02 -0.15 -0.01 0.02 -0.14
          -1.73472e-18 0.02 -0.15 -1.73472e-18 0.02 -0.14 0.01 0.02 -0.15 0.01 0.02 -0.14
          0.02 0.02 -0.15 0.02 0.02 -0.14 0.03 0.02 -0.15 0.03 0.02 -0.14
          0.04 0.02 -0.15 0.04 0.02 -0.14 -0.04 0.03 -0.15 -0.03 0.03 -0.15
          -0.04 0.03 -0.14 -0.03 0.03 -0.14 -0.02 0.03 -0.15 -0.02 0.03 -0.14
          -0.01 0.03 -0.15 -0.01 0.03 -0.14 -1.73472e-18 0.03 -0.15 -1.73472e-18 0.03 -0.14
          0.01 0.03 -0.15 0.01 0.03 -0.14 0.02 0.03 -0.15 0.02 0.03 -0.14
          0.03 0.03 -0.15 0.03 0.03 -0.14 0.04 0.03 -0.15 0.04 0.03 -0.14
          -0.04 0.04 -0.15 -0.03 0.04 -0.15 -0.04 0.04 -0.14 -0.03 0.04 -0.14
          -0.02 0.04 -0.15 -0.02 0.04 -0.14 -0.01 0.04 -0.15 -0.01 0.04 -0.14
          -1.73472e-18 0.04 -0.15 -1.73472e-18 0.04 -0.14 0.01 0.04 -0.15 0.01 0.04 -0.14
          0.02 0.04 -0.15 0.02 0.04 -0.14 0.03 0.04 -0.15 0.03 0.04 -0.14
          0.04 0.04 -0.15 0.04 0.04 -0.14 -0.04 -0.04 -0.13 -0.03 -0.04 -0.13
          -0.04 -0.03 -0.13 -0.03 -0.03 -0.13 -0.02 -0.04 -0.13 -0.02 -0.03 -0.13
          -0.01 -0.04 -0.13 -0.01 -0.03 -0.13 -1.73472e-18 -0.04 -0.13 -1.73472e-18 -0.03 -0.13
          0.01 -0.04 -0.13 0.01 -0.03 -0.13 0.02 -0.04 -0.13 0.02 -0.03 -0.13
          0.03 -0.04 -0.13 0.03 -0.03 -0.13 0.04 -0.04 -0.13 0.04 -0.03 -0.13
          -0.04 -0.02 -0.13 -0.03 -0.02 -0.13 -0.02 -0.02 -0.13 -0.01 -0.02 -0.13
          -1.73472e-18 -0.02 -0.13 0.01 -0.02 -0.13 0.02 -0.02 -0.13 0.03 -0.02 -0.13
          0.04 -0.02 -0.13 -0.04 -0.01 -0.13 -0.03 -0.01 -0.13 -0.02 -0.01 -0.13
          -0.01 -0.01 -0.13 -1.73472e-18 -0.01 -0.13 0.01 -0.01 -0.13 0.02 -0.01 -0.13
          0.03 -0.01 -0.13 0.04 -0.01 -0.13 -0.04 -1.73472e-18 -0.13 -0.03 -1.73472e-18 -0.13
          -0.02 -1.73472e-18 -0.13 -0.01 -1.73472e-18 -0.13 -1.73472e-18 -1.73472e-18 -0.13 0.01 -1.73472e-18 -0.13
          0.02 -1.73472e-18 -0.13 0.03 -1.73472e-18 -0.13 0.04 -1.73472e-18 -0.13 -0.04 0.01 -0.13
          -0.03 0.01 -0.13 -0.02 0.01 -0.13 -0.01 0.01 -0.13 -1.73472e-18 0.01 -0.13
          0.01 0.01 -0.13 0.02 0.01 -0.13 0.03 0.01 -0.13 0.04 0.01 -0.13
          -0.04 0.02 -0.13 -0.03 0.02 -0.13 -0.02 0.02 -0.13 -0.01 0.02 -0.13
          -1.73472e-18 0.02 -0.13 0.01 0.02 -0.13 0.02 0.02 -0.13 0.03 0.02 -0.13
          0.04 0.02 -0.13 -0.04 0.03 -0.13 -0.03 0.03 -0.13 -0.02 0.03 -0.13
          -0.01 0.03 -0.13 -1.73472e-18 0.03 -0.13 0.01 0.03 -0.13 0.02 0.03 -0.13
          0.03 0.03 -0.13 0.04 0.03 -0.13 -0.04 0.04 -0.13 -0.03 0.04 -0.13
          -0.02 0.04 -0.13 -0.01 0.04 -0.13 -1.73472e-18 0.04 -0.13 0.01 0.04 -0.13
          0.02 0.04 -0.13 0.03 0.04 -0.13 0.04 0.04 -0.13 -0.04 -0.04 -0.12
          -0.03 -0.04 -0.12 -0.04 -0.03 -0.12 -0.03 -0.03 -0.12 -0.02 -0.04 -0.12
          -0.02 -0.03 -0.12 -0.01 -0.04 -0.12 -0.01 -0.03 -0.12 -1.73472e-18 -0.04 -0.12
          -1.73472e-18 -0.03 -0.12 0.01 -0.04 -0.12 0.01 -0.03 -0.12 0.02 -0.04 -0.12
          0.02 -0.03 -0.12 0.03 -0.04 -0.12 0.03 -0.03 -0.12 0.04 -0.04 -0.12
          0.04 -0.03 -0.12 -0.04 -0.02 -0.12 -0.03 -0.02 -0.12 -0.02 -0.02 -0.12
          -0.01 -0.02 -0.12 -1.73472e-18 -0.02 -0.12 0.01 -0.02 -0.12 0.02 -0.02 -0.12
          0.03 -0.02 -0.12 0.04 -0.02 -0.12 -0.04 -0.01 -0.12 -0.03 -0.01 -0.12
          -0.02 -0.01 -0.12 -0.01 -0.01 -0.12 -1.73472e-18 -0.01 -0.12 0.01 -0.01 -0.12
          0.02 -0.01 -0.12 0.03 -0.01 -0.12 0.04 -0.01 -0.12 -0.04 -1.73472e-18 -0.12
          -0.03 -1.73472e-18 -0.12 -0.02 -1.73472e-18 -0.12 -0.01 -1.73472e-18 -0.12 -1.73472e-18 -1.73472e-18 -0.12
          0.01 -1.73472e-18 -0.12 0.02 -1.73472e-18 -0.12 0.03 -1.73472e-18 -0.12 0.04 -1.73472e-18 -0.12
          -0.04 0.01 -0.12 -0.03 0.01 -0.12 -0.02 0.01 -0.12 -0.01 0.01 -0.12
          -1.73472e-18 0.01 -0.12 0.01 0.01 -0.12 0.02 0.01 -0.12 0.03 0.01 -0.12
          0.04 0.01 -0.12 -0.04 0.02 -0.12 -0.03 0.02 -0.12 -0.02 0.02 -0.12
          -0.01 0.02 -0.12 -1.73472e-18 0.02 -0.12 0.01 0.02 -0.12 0.02 0.02 -0.12
          0.03 0.02 -0.12 0.04 0.02 -0.12 -0.04 0.03 -0.12 -0.03 0.03 -0.12
          -0.02 0.03 -0.12 -0.01 0.03 -0.12 -1.73472e-18 0.03 -0.12 0.01 0.03 -0.12
          0.02 0.03 -0.12 0.03 0.03 -0.12 0.04 0.03 -0.12 -0.04 0.04 -0.12
          -0.03 0.04 -0.12 -0.02 0.04 -0.12 -0.01 0.04 -0.12 -1.73472e-18 0.04 -0.12
          0.01 0.04 -0.12 0.02 0.04 -0.12 0.03 0.04 -0.12 0.04 0.04 -0.12
          -0.04 -0.04 -0.11 -0.03 -0.04 -0.11 -0.04 -0.03 -0.11 -0.03 -0.03 -0.11
          -0.02 -0.04 -0.11 -0.02 -0.03 -0.11 -0.01 -0.04 -0.11 -0.01 -0.03 -0.11
          -1.73472e-18 -0.04 -0.11 -1.73472e-18 -0.03 -0.11 0.01 -0.04 -0.11 0.01 -0.03 -0.11
          0.02 -0.04 -0.11 0.02 -0.03 -0.11 0.03 -0.04 -0.11 0.03 -0.03 -0.11
          0.04 -0.04 -0.11 0.04 -0.03 -0.11 -0.04 -0.02 -0.11 -0.03 -0.02 -0.11
          -0.02 -0.02 -0.11 -0.01 -0.02 -0.11 -1.73472e-18 -0.02 -0.11 0.01 -0.02 -0.11
          0.02 -0.02 -0.11 0.03 -0.02 -0.11 0.04 -0.02 -0.11 -0.04 -0.01 -0.11
          -0.03 -0.01 -0.11 -0.02 -0.01 -0.11 -0.01 -0.01 -0.11 -1.73472e-18 -0.01 -0.11
          0.01 -0.01 -0.11 0.02 -0.01 -0.11 0.03 -0.01 -0.11 0.04 -0.01 -0.11
          -0.04 -1.73472e-18 -0.11 -0.03 -1.73472e-18 -0.11 -0.02 -1.73472e-18 -0.11 -0.01 -1.73472e-18 -0.11
          -1.73472e-18 -1.73472e-18 -0.11 0.01 -1.73472e-18 -0.11 0.02 -1.73472e-18 -0.11 0.03 -1.73472e-18 -0.11
          0.04 -1.73472e-18 -0.11 -0.04 0.01 -0.11 -0.03 0.01 -0.11 -0.02 0.01 -0.11
          -0.01 0.01 -0.11 -1.73472e-18 0.01 -0.11 0.01 0.01 -0.11 0.02 0.01 -0.11
          0.03 0.01 -0.11 0.04 0.01 -0.11 -0.04 0.02 -0.11 -0.03 0.02 -0.11
          -0.02 0.02 -0.11 -0.01 0.02 -0.11 -1.73472e-18 0.02 -0.11 0.01 0.02 -0.11
          0.02 0.02 -0.11 0.03 0.02 -0.11 0.04 0.02 -0.11 -0.04 0.03 -0.11
          -0.03 0.03 -0.11 -0.02 0.03 -0.11 -0.01 0.03 -0.11 -1.73472e-18 0.03 -0.11
          0.01 0.03 -0.11 0.02 0.03 -0.11 0.03 0.03 -0.11 0.04 0.03 -0.11
          -0.04 0.04 -0.11 -0.03 0.04 -0.11 -0.02 0.04 -0.11 -0.01 0.04 -0.11
          -1.73472e-18 0.04 -0.11 0.01 0.04 -0.11 0.02 0.04 -0.11 0.03 0.04 -0.11
          0.04 0.04 -0.11 -0.04 -0.04 -0.1 -0.03 -0.04 -0.1 -0.04 -0.03 -0.1
          -0.03 -0.03 -0.1 -0.02 -0.04 -0.1 -0.02 -0.03 -0.1 -0.01 -0.04 -0.1