<?xml version="1.0"?>
<VTKFile type="UnstructuredGrid" version="0.1" byte_order="LittleEndian">
  <UnstructuredGrid>
    <Piece NumberOfCells="3800" NumberOfPoints="4620">
      <CellData Scalars="p (Pa)">
        <DataArray type="Float32" Name="p (Pa)" NumberOfComponents="1" format="ascii">
          -504685 -509061 -517806 -530847 -547939 -568561 -591902 -617003 -642824 -668250 -505169 -509798
          -519092 -533043 -551439 -573669 -598689 -625388 -652675 -679400 -505924 -511040 -521413 -537221
          -558386 -584114 -612718 -642761 -673113 -702694 -506532 -512301 -524183 -542747 -568333 -599961
          -634402 -669748 -705040 -739734 -506409 -512846 -526342 -548102 -579413 -619532 -661960 -704627
          -747249 -790854 -504946 -511818 -526398 -550456 -586465 -635008 -685356 -736961 -790825 -850129
          -501742 -508631 -523178 -546938 -581916 -628690 -682676 -744389 -816413 -900639 -496802 -503406
          -517222 -539445 -571620 -614882 -669258 -737561 -824615 -930400 -490396 -496592 -509476 -530034
          -559691 -600224 -654068 -726042 -822663 -937778 -482868 -488632 -500597 -519671 -547322 -585792
          -638718 -712371 -815074 -939031 -474543 -479869 -490930 -508603 -534383 -570693 -621519 -693457
          -796071 -936676 -465715 -470576 -480676 -496830 -520430 -553666 -599719 -662232 -740422 -806096
          -456673 -461021 -470038 -484410 -505261 -534163 -572707 -620447 -668720 -692196 -447733 -451519
          -459328 -471649 -489214 -512820 -542556 -575548 -602416 -611853 -439242 -442445 -448992 -459146
          -473220 -491314 -512618 -534092 -549762 -555095 -431560 -434211 -439568 -447703 -458619 -472020
          -486882 -500948 -510975 -515006 -425019 -427197 -431546 -438015 -446435 -456372 -466924 -476597
          -483650 -487111 -419890 -421705 -425289 -430527 -437180 -444809 -452693 -459848 -465271 -468390
          -416370 -417941 -421021 -425465 -431016 -437267 -443636 -449423 -453968 -456873 -414581 -416031
          -418862 -422920 -427947 -433559 -439246 -444431 -448587 -451385 -515557 -520244 -529622 -543626
          -561993 -584119 -609073 -635890 -663741 -691975 -516063 -521054 -531100 -546240 -566258 -590384
          -617239 -645602 -674599 -703688 -516839 -522422 -533821 -551374 -575121 -603959 -635066 -666620
          -697749 -728383 -517410 -523808 -537172 -558564 -588974 -627111 -665745 -702180 -735867 -768427
          -517095 -524334 -539881 -566136 -606750 -662479 -712474 -754863 -790296 -825063 -515164 -522904
          -539841 -569711 -620418 -703019 -763141 -810813 -848568 -889916 -511150 -518736 -535105 -562992
          -606826 -669083 -731362 -794611 -860942 -931831 -505147 -512168 -527007 -551292 -587181 -635594
          -692653 -760021 -841316 -935789 -497572 -503914 -517119 -538209 -568520 -609206 -660935 -726772
          -811323 -911264 -488899 -494587 -506341 -524911 -551382 -587140 -634124 -695814 -776635 -873869
          -479544 -484629 -495102 -511575 -534994 -566701 -608610 -663353 -732741 -807967 -469862 -474377
          -483649 -498177 -518722 -546296 -582014 -626354 -676308 -717972 -460177 -464129 -472216 -484803
          -502405 -525553 -554382 -587503 -619776 -640683 -450805 -454199 -461104 -471739 -486349 -505014
          -527157 -550623 -570780 -581996 -442067 -444925 -450692 -459448 -471205 -485719 -502115 -518387
          -531378 -538332 -434277 -436648 -441392 -448476 -457759 -468845 -480861 -492285 -501183 -506162
          -427713 -429678 -433572 -439296 -446633 -455153 -464117 -472455 -478991 -482952 -422603 -424258
          -427510 -432230 -438172 -444934 -451918 -458368 -463531 -466918 -419111 -420558 -423388 -427455
          -432514 -438198 -444013 -449388 -453785 -456849 -417340 -418685 -421305 -425053 -429687 -434862
          -440138 -445025 -449078 -451994 -524774 -529693 -539546 -554289 -573666 -597056 -623493 -652072
          -682183 -713643 -525252 -530504 -541099 -557117 -578379 -604063 -632592 -662744 -693858 -725925
          -525957 -531863 -543976 -562775 -588478 -619914 -653290 -686681 -719412 -752116 -526375 -533193
          -547565 -571005 -605399 -650082 -692549 -730618 -764048 -795901 -525770 -533534 -550500 -580335
          -630719 -711860 -768080 -808664 -835711 -861334 -523334 -531639 -550276 -585552 -659239 -890229
          -929360 -941130 -929509 -939816 -518562 -526573 -544142 -575233 -628305 -715854 -786095 -852938
          -919411 -970385 -511618 -518857 -534264 -559841 -598549 -652003 -711435 -779176 -857394 -937637
          -503027 -509384 -522631 -543796 -574165 -614461 -663752 -723502 -795280 -874562 -493362 -498899
          -510297 -528159 -553252 -586268 -627735 -678720 -739592 -805148 -483122 -487933 -497768 -513028
          -534237 -561958 -596690 -638686 -686508 -732647 -472719 -476881 -485349 -498386 -516327 -539465
          -567833 -600654 -634977 -663424 -462504 -466073 -473300 -484333 -499319 -518260 -540714 -565246
          -588627 -605614 -452794 -455818 -461906 -471104 -483397 -498553 -515856 -533730 -549514 -560099
          -443883 -446415 -451477 -459033 -468948 -480857 -493980 -506943 -517864 -525002 -436040 -438146
          -442323 -448481 -456414 -465716 -475674 -485226 -493121 -498364 -429497 -431253 -434714 -439756
          -446148 -453497 -461203 -468483 -474506 -478661 -424437 -425930 -428856 -433078 -438362 -444351
          -450555 -456384 -461263 -464778 -420993 -422313 -424886 -428575 -433152 -438294 -443586 -448561
          -452782 -455934 -419251 -420484 -422884 -426311 -430545 -435282 -440146 -444727 -448646 -451632
          -532108 -537146 -547245 -562370 -582298 -606474 -634051 -664260 -696689 -731496 -532493 -537856
          -548672 -565020 -586738 -613096 -642761 -674659 -708284 -743887 -533002 -538996 -551259 -570207
          -595976 -627512 -661946 -697499 -733456 -770162 -533112 -539966 -554318 -577388 -610399 -652233
          -695420 -737268 -776822 -813979 -532078 -539800 -556431 -584664 -628703 -690014 -747150 -799034
          -845233 -879985 -529110 -537297 -555273 -587162 -641803 -732225 -802912 -868707 -935418 -958940
          -523727 -531632 -548738 -578040 -624507 -691637 -762368 -844182 -948040 -958160 -516092 -523224
          -538310 -563024 -599576 -648887 -707059 -776375 -858588 -927297 -506754 -512963 -525852 -546297
          -575308 -613328 -659618 -714539 -777364 -839845 -496343 -501665 -512573 -529534 -553055 -583407
          -620420 -663722 -711613 -758390 -485426 -489957 -499166 -513301 -532614 -557200 -586812 -620608
          -656294 -688576 -474470 -478309 -486062 -497844 -513732 -533636 -557089 -582914 -608640 -629953
          -463857 -467090 -473583 -483356 -496358 -512338 -530660 -550032 -568250 -582307 -453905 -456610
          -462010 -470060 -480612 -493319 -507481 -521899 -534847 -544420 -444886 -447137 -451604 -458193
          -466705 -476751 -487666 -498451 -507858 -514715 -437033 -438905 -442597 -447991 -454861 -462828
          -471311 -479527 -486604 -491805 -430536 -432106 -435186 -439646 -445260 -451680 -458418 -464878
          -470440 -474618 -425542 -426888 -429517 -433297 -438012 -443350 -448907 -454214 -458817 -462366
          -422157 -423356 -425689 -429028 -433169 -437828 -442657 -447271 -451308 -454491 -420449 -421574
          -423762 -426885 -430746 -435078 -439562 -443851 -447625 -450641 -537503 -542556 -552682 -567864
          -587926 -612434 -640734 -672221 -706629 -744289 -537743 -543085 -553844 -570084 -591675 -618074
          -648318 -681561 -717432 -756340 -537966 -543861 -555860 -574262 -599124 -629700 -664219 -701263
          -740167 -781291 -537664 -544290 -558004 -579604 -609717 -647484 -689308 -732869 -776923 -821068
          -536138 -543475 -558956 -584183 -621039 -669249 -721647 -775371 -828500 -877004 -532670 -540382
          -556864 -584410 -626410 -684515 -747361 -814061 -883318 -938723 -526835 -534339 -550292 -576659
          -616144 -670145 -734109 -808000 -892100 -954851 -518750 -525590 -539937 -563085 -596652 -641490
          -696206 -760127 -831796 -899434 -508929 -514903 -527257 -546735 -574184 -610015 -653626 -703840
          -758115 -810289 -498022 -503110 -513511 -529610 -551792 -580152 -614153 -652447 -692324 -729023
          -486643 -490918 -499577 -512787 -530662 -553075 -579416 -608321 -637310 -662548 -475307 -478871
          -486036 -496837 -511223 -528926 -549269 -570963 -591907 -609249 -464425 -467381 -473286 -482093
          -493657 -507624 -523310 -539565 -554726 -566828 -454321 -456765 -461618 -468788 -478074 -489096
          -501208 -513443 -524556 -533246 -445252 -447272 -451262 -457103 -464574 -473302 -482717 -492044
          -500372 -506854 -437421 -439098 -442395 -447183 -453241 -460225 -467652 -474913 -481352 -486401
          -430986 -432397 -435160 -439144 -444141 -449843 -455847 -461679 -466853 -470971 -426066 -427283
          -429656 -433063 -437307 -442117 -447152 -452032 -456385 -459913 -422742 -423832 -425954 -428989
          -432753 -437001 -441437 -445738 -449598 -452775 -421068 -422096 -424094 -426946 -430477 -434455
          -438604 -442631 -446261 -449274 -541067 -546057 -556063 -571086 -591016 -615548 -644200 -676496
          -712222 -751678 -541142 -546381 -556926 -572845 -594070 -620248 -650718 -684805 -722203 -763335
          -541049 -546756 -558340 -576038 -599935 -629611 -663988 -701894 -742726 -787007 -540320 -546637
          -559617 -579841 -607781 -643085 -683931 -728154 -774466 -823214 -538327 -545230 -559622 -582604
          -615415 -658224 -708280 -761694 -815981 -870818 -534441 -541670 -556910 -581755 -618398 -668254
          -728398 -792391 -856389 -918776 -528283 -535385 -550374 -574891 -611379 -662255 -726870 -795927
          -865029 -931184 -519923 -526472 -540185 -562316 -594648 -638840 -694439 -756014 -818567 -877857
          -509822 -515571 -527472 -546306 -573087 -608599 -652326 -701128 -750053 -793593 -498623 -503505
          -513495 -528998 -550465 -578074 -611143 -647430 -683039 -713412 -486967 -491031 -499259 -511809
          -528786 -550026 -574765 -601264 -626729 -647907 -475406 -478750 -485461 -495551 -508932 -525282
          -543850 -563274 -581576 -596548 -464373 -467110 -472564 -480663 -491231 -503888 -517953 -532359
          -545703 -556511 -454198 -456437 -460870 -467387 -475775 -485656 -496439 -507295 -517221 -525235
          -445128 -446966 -450585 -455862 -462576 -470380 -478776 -487120 -494692 -500827 -437346 -438867
          -441852 -446173 -451622 -457889 -464562 -471139 -477095 -481966 -430984 -432266 -434771 -438379
          -442896 -448053 -453505 -458860 -463718 -467744 -426139 -427249 -429412 -432513 -436378 -440768
          -445392 -449929 -454066 -457542 -422876 -423875 -425817 -428596 -432047 -435956 -440067 -444104
          -447804 -450949 -421236 -422179 -424014 -426635 -429886 -433564 -437430 -441229 -444723 -447713
          -543010 -547891 -557688 -572430 -592072 -616420 -645115 -677740 -714028 -754042 -542923 -548019
          -558282 -573805 -594597 -620465 -650938 -685415 -723528 -765482 -542529 -548029 -559187 -576251
          -599406 -628510 -662849 -701284 -743111 -788766 -541412 -547437 -559799 -579057 -605815 -640232
          -681237 -726275 -773738 -824472 -539022 -545563 -559173 -580911 -612235 -654322 -706009 -760920
          -815372 -871718 -534810 -541668 -556126 -579823 -615515 -666802 -734375 -801546 -861104 -920762
          -528430 -535227 -549644 -573608 -610840 -668010 -752726 -826787 -882844 -937881 -519914 -526233
          -539558 -561439 -594625 -643101 -708953 -777363 -837295 -886387 -509679 -515243 -526838 -545454
          -572656 -610308 -658894 -713081 -762691 -797847 -498346 -503059 -512749 -527934 -549324 -577520
          -612141 -650135 -685133 -710672 -486569 -490462 -498365 -510484 -527019 -547940 -572526 -598696
          -622824 -641318 -474916 -478086 -484454 -494044 -506796 -522423 -540175 -558599 -575573 -589027
          -463837 -466403 -471515 -479103 -488996 -500831 -513951 -527319 -539610 -549550 -453664 -455743
          -459857 -465895 -473650 -482767 -492697 -502687 -511853 -519369 -444637 -446332 -449669 -454524
          -460690 -467847 -475547 -483229 -490275 -496124 -436925 -438325 -441068 -445033 -450029 -455775
          -461907 -467995 -473590 -478294 -430645 -431824 -434127 -437441 -441591 -446335 -451374 -456368
          -460975 -464901 -425877 -426899 -428892 -431750 -435315 -439376 -443678 -447944 -451899 -455311
          -422673 -423595 -425390 -427959 -431157 -434792 -438640 -442459 -446017 -449118 -421064 -421937
          -423636 -426065 -429086 -432516 -436147 -439754 -443124 -446078 -543587 -548330 -557860 -572235
          -591465 -615441 -643888 -676404 -712600 -752206 -543351 -548282 -558224 -573297 -593584 -619012
          -649240 -683692 -721859 -763563 -542687 -547973 -558705 -575167 -597646 -626220 -660419 -699095
          -741322 -787114 -541232 -546982 -558793 -577266 -603193 -637179 -678674 -724741 -773204 -824644
          -538507 -544727 -557697 -578563 -609187 -651871 -706990 -765237 -821101 -878004 -534036 -540569
          -554409 -577414 -613318 -669096 -753259 -829204 -885971 -941518 -527507 -534021 -547952 -571642
          -610709 -681094 -847600 -923448 -941360 -976103 -518928 -525016 -537962 -559662 -594055 -648924
          -735474 -823122 -891504 -928907 -508676 -514050 -525331 -543741 -571524 -612299 -670111 -741763
          -804601 -824837 -497348 -501894 -511291 -526193 -547642 -576964 -614944 -658923 -697729 -718037
          -485585 -489322 -496937 -508699 -524952 -545923 -571201 -598609 -623091 -639572 -473960 -476982
          -483066 -492262 -504567 -519783 -537241 -555436 -571908 -584369 -462927 -465356 -470196 -477392
          -486797 -498087 -510643 -523447 -535148 -544513 -452821 -454775 -458641 -464317 -471611 -480195
          -489560 -498996 -507673 -514834 -443878 -445463 -448581 -453118 -458880 -465573 -472789 -480015
          -486691 -492316 -436257 -437562 -440118 -443813 -448469 -453832 -459573 -465306 -470630 -475190
          -430067 -431165 -433310 -436397 -440266 -444699 -449427 -454148 -458556 -462386 -425377 -426329
          -428187 -430853 -434184 -437989 -442041 -446092 -449896 -453242 -422229 -423089 -424766 -427168
          -430163 -433579 -437216 -440857 -444293 -447343 -420649 -421465 -423053 -425328 -428162 -431392
          -434832 -438279 -441540 -444450 -543067 -547650 -556868 -570796 -589486 -612888 -640791 -672802
          -708413 -747034 -542698 -547444 -557021 -571568 -591211 -615962 -645591 -679585 -717314 -758198
          -541792 -546846 -557114 -572885 -594499 -622157 -655623 -694011 -736260 -781745 -540034 -545492
          -556701 -574245 -598933 -631523 -671950 -718307 -768131 -820605 -537016 -542884 -555108 -574754
          -603568 -643784 -696477 -757136 -818381 -879333 -532326 -538472 -551468 -572987 -606259 -656791
          -730577 -818111 -891702 -954131 -525695 -531830 -544926 -567051 -602725 -661760 -763358 -904555
          -957261 -969115 -517129 -522890 -535139 -555653 -588062 -639307 -720327 -834253 -943698 -963696
          -506969 -512079 -522824 -540425 -567237 -607655 -670631 -783618 -896572 -858419 -495767 -500103
          -509086 -523399 -544212 -573332 -613134 -664772 -711243 -724901 -484139 -487706 -494987 -506276
          -521993 -542559 -567979 -596558 -622060 -637366 -472648 -475528 -481332 -490128 -501951 -516678
          -533764 -551783 -568068 -580038 -461743 -464051 -468654 -475507 -484483 -495299 -507388 -519776
          -531108 -540142 -451761 -453612 -457276 -462657 -469582 -477749 -486684 -495719 -504058 -510981
          -442936 -444434 -447379 -451668 -457119 -463461 -470317 -477210 -483618 -489072 -435426 -436656
          -439066 -442553 -446950 -452024 -457473 -462942 -468060 -472499 -429332 -430366 -432388 -435300
          -438954 -443150 -447642 -452154 -456404 -460147 -424719 -425617 -427369 -429886 -433035 -436642
          -440500 -444381 -448060 -451341 -421626 -422438 -424020 -426290 -429125 -432370 -435840 -439337
          -442669 -445666 -420075 -420845 -422345 -424496 -427181 -430253 -433538 -436854 -440021 -442885
          -541724 -546132 -555002 -568420 -586458 -609108 -636205 -667377 -702025 -739309 -541235 -545782
          -554957 -568903 -587765 -611605 -640283 -673384 -710234 -749953 -540112 -544917 -554674 -569652
          -590182 -616520 -648621 -685948 -727582 -772460 -538084 -543224 -553759 -570191 -593228 -623587
          -661536 -706296 -756268 -809750 -534803 -540276 -551627 -569715 -595906 -631924 -679016 -736117
          -799821 -866462 -529925 -535615 -547556 -567022 -596290 -638857 -698486 -774550 -858744 -940324
          -523230 -528896 -540872 -560686 -591296 -637965 -708313 -804850 -907738 -969296 -514737 -520076
          -531338 -549890 -578320 -621069 -684476 -772736 -875131 -952477 -504749 -509518 -519491 -535657
          -559810 -594952 -645623 -716292 -790074 -827478 -493769 -497845 -506264 -519599 -538798 -565199
          -600160 -643011 -684133 -708931 -482373 -485745 -492620 -503251 -517989 -537150 -560621 -586822
          -611150 -628269 -471097 -473832 -479340 -487678 -498872 -512795 -528936 -546019 -561777 -573927
          -460386 -462582 -466962 -473481 -482021 -492316 -503843 -515708 -526682 -535596 -450572 -452335
          -455824 -460952 -467554 -475349 -483897 -492577 -500646 -507417 -441892 -443318 -446125 -450212
          -455413 -461473 -468040 -474670 -480871 -486196 -434504 -435675 -437972 -441296 -445492 -450344
          -455568 -460834 -465792 -470130 -428510 -429495 -431421 -434198 -437687 -441703 -446015 -450365
          -454490 -458154 -423974 -424829 -426499 -428900 -431910 -435365 -439073 -442821 -446398 -449617
          -420933 -421707 -423216 -425383 -428094 -431205 -434544 -437926 -441171 -444117 -419408 -420142
          -421574 -423628 -426198 -429144 -432308 -435517 -438604 -441420 -539826 -544055 -552565 -565443
          -582771 -604563 -630690 -660792 -694206 -729883 -539234 -543576 -552338 -565653 -583668 -606470
          -633987 -665882 -701479 -739692 -537922 -542475 -551709 -565860 -585227 -610077 -640491 -676205
          -716518 -760207 -535661 -540480 -550327 -565611 -586907 -614843 -649863 -691916 -740311 -793434
          -532157 -537230 -547691 -564188 -587722 -619569 -660950 -712451 -773704 -842233 -527129 -532353
          -543217 -560623 -586082 -621787 -670336 -733828 -813271 -904995 -520408 -525586 -536408 -553916
          -579947 -617406 -670261 -742520 -837049 -949012 -512027 -516918 -527127 -543603 -568000 -602878
          -651606 -717158 -798945 -885836 -502261 -506662 -515789 -530346 -551508 -580990 -620796 -671725
          -728272 -777384 -491560 -495357 -503154 -515372 -532645 -555739 -585153 -619904 -655223 -683730
          -480451 -483623 -490066 -499966 -513550 -530955 -551912 -575111 -597560 -615583 -469441 -472034
          -477247 -485113 -495622 -508616 -523598 -539487 -554518 -566785 -458961 -461056 -465231 -471437
          -479555 -489325 -500262 -511570 -522180 -531015 -449340 -451029 -454370 -459281 -465603 -473071
          -481273 -489638 -497480 -504140 -440818 -442187 -444883 -448810 -453811 -459645 -465982 -472402
          -478441 -483664 -433556 -434683 -436892 -440091 -444135 -448817 -453871 -458981 -463816 -468069
          -427661 -428609 -430464 -433139 -436504 -440384 -444561 -448788 -452814 -456410 -423199 -424022
          -425630 -427945 -430849 -434190 -437784 -441430 -444925 -448086 -420207 -420951 -422405 -424494
          -427112 -430122 -433360 -436652 -439824 -442721 -418706 -419413 -420792 -422773 -425254 -428105
          -431174 -434299 -437318 -440090 -537628 -541684 -549847 -562200 -578829 -599759 -624876 -653825
          -685873 -719776 -536950 -541100 -549468 -562180 -579375 -601153 -627477 -658057 -692202 -728642
          -535487 -539805 -548551 -561931 -580210 -603649 -632394 -666331 -704894 -746786 -533040 -537566
          -546786 -561033 -580777 -606563 -638887 -678016 -723729 -774758 -529364 -534078 -543747 -558862
          -580169 -608637 -645352 -691325 -747187 -811919 -524234 -529045 -538970 -554654 -577125 -607843
          -648661 -701736 -769314 -851018 -517524 -522271 -532097 -547716 -570304 -601603 -643963 -700313
          -774031 -864500 -509282 -513774 -523061 -537795 -559030 -588273 -627391 -678185 -741240 -812268
          -499756 -503825 -512200 -525366 -544075 -569299 -601981 -642274 -687936 -733030 -489350 -492896
          -500137 -511368 -526993 -547421 -572763 -602188 -633027 -660827 -478544 -481538 -487598 -496853
          -509433 -525355 -544291 -565191 -585970 -603853 -467813 -470285 -475244 -482705 -492629 -504836
          -518860 -533779 -548162 -560339 -457571 -459584 -463592 -469543 -477317 -486663 -497130 -508000
          -518315 -527055 -448146 -449778 -453006 -457749 -463858 -471079 -479025 -487160 -494836 -501403
          -439780 -441108 -443722 -447532 -452388 -458062 -464237 -470512 -476436 -481577 -432641 -433735
          -435881 -438992 -442928 -447492 -452429 -457433 -462178 -466361 -426838 -427760 -429562 -432166
          -435444 -439230 -443312 -447453 -451404 -454941 -422442 -423243 -424806 -427059 -429888 -433148
          -436661 -440232 -443662 -446773 -419493 -420217 -421630 -423663 -426214 -429149 -432313 -435537
          -438651 -441503 -418014 -418701 -420042 -421969 -424385 -427166 -430165 -433224 -436189 -438918
          -535351 -539254 -547107 -558993 -574994 -595143 -619333 -647197 -677933 -710099 -534611 -538591
          -546615 -558800 -575281 -596162 -621428 -650808 -683578 -718278 -533036 -537154 -545487 -558219
          -575594 -597869 -625227 -657634 -694591 -734693 -530457 -534740 -543449 -556866 -575397 -599540
          -629812 -666624 -709995 -758858 -526670 -531095 -540141 -554201 -573879 -599981 -633492 -675516
          -727048 -787975 -521491 -525978 -535188 -549614 -570035 -597550 -633621 -680138 -739384 -812853
          -514828 -519243 -528326 -542607 -562934 -590523 -627014 -674565 -735887 -812904 -506739 -510925
          -519531 -533038 -552198 -578039 -611804 -654745 -707553 -768582 -497449 -501267 -509086 -521272
          -538364 -561015 -589806 -624805 -664746 -705904 -487323 -490681 -497517 -508055 -522591 -541391
          -564467 -591163 -619581 -646243 -476802 -479666 -485453 -494263 -506187 -521210 -539021 -558739
          -578648 -596243 -466331 -468717 -473502 -480693 -490249 -501997 -515511 -529964 -544053 -556138
          -456310 -458267 -462165 -467956 -475525 -484640 -494877 -505561 -515764 -524442 -447063 -448658
          -451814 -456458 -462447 -469542 -477373 -485418 -493029 -499536 -438837 -440138 -442702 -446444
          -451221 -456814 -462916 -469130 -475001 -480082 -431804 -432878 -434986 -438044 -441920 -446422
          -451300 -456251 -460946 -465074 -426082 -426986 -428756 -431316 -434543 -438273 -442302 -446392
          -450295 -453783 -421742 -422527 -424062 -426275 -429057 -432265 -435727 -439248 -442632 -445699
          -418830 -419540 -420926 -422921 -425426 -428312 -431426 -434601 -437671 -440482 -417369 -418042
          -419356 -421246 -423618 -426350 -429300 -432312 -435232 -437923 -533177 -536953 -544550 -556050
          -571535 -591040 -614463 -641421 -671048 -701728 -532396 -536239 -543986 -555749 -571664 -591841
          -616280 -644725 -676428 -709773 -530751 -534713 -542727 -554967 -571671 -593105 -619490 -650866
          -686813 -725875 -528096 -532198 -540531 -553355 -571055 -594126 -623137 -658647 -700941 -749225
          -524256 -528474 -537085 -550441 -569093 -593805 -625586 -665709 -715599 -775987 -519078 -523342
          -532078 -545716 -564944 -590756 -624549 -668257 -724495 -795974 -512492 -516688 -525300 -538789
          -557890 -583676 -617640 -661836 -719055 -792538 -504560 -508553 -516744 -529558 -547660 -571972
          -603655 -643966 -693786 -752187 -495487 -499153 -506651 -518316 -534646 -556266 -583787 -617438
          -656250 -696636 -485608 -488859 -495474 -505674 -519756 -538018 -560573 -586949 -615412 -642204
          -475331 -478126 -483779 -492397 -504098 -518918 -536640 -556495 -576773 -594619 -465079 -467424
          -472134 -479230 -488697 -500407 -513993 -528670 -543072 -555310 -455241 -457175 -461033 -466778
          -474321 -483454 -493784 -504638 -515027 -523761 -446141 -447722 -450855 -455476 -461457 -468575
          -476470 -484611 -492310 -498816 -438028 -439320 -441867 -445593 -450363 -455965 -462096 -468351
          -474249 -479305 -431081 -432147 -434240 -437282 -441145 -445642 -450523 -455479 -460168 -464262
          -425422 -426318 -428074 -430614 -433823 -437537 -441551 -445627 -449508 -452960 -421127 -421904
          -423423 -425615 -428374 -431558 -434996 -438492 -441848 -444880 -418243 -418944 -420314 -422287
          -424766 -427624 -430709 -433855 -436893 -439671 -416796 -417460 -418758 -420625 -422970 -425673
          -428591 -431571 -434460 -437118 -531241 -534918 -542319 -553522 -568613 -587628 -610461 -636716
          -665471 -694976 -530439 -534178 -541718 -553171 -568674 -588347 -612203 -639999 -670980 -703435
          -528761 -532610 -540400 -552302 -568562 -589466 -615280 -646128 -681717 -720690 -526076 -530056
          -538144 -550598 -567814 -590322 -618785 -653961 -696534 -746360 -522231 -526321 -534672 -547635
          -565773 -589906 -621185 -661215 -712154 -776208 -517094 -521231 -529710 -542962 -561695 -586979
          -620400 -664306 -722117 -797875 -510606 -514688 -523074 -536233 -554943 -580388 -614320 -659273
          -718729 -796362 -502826 -506731 -514753 -527343 -545241 -569540 -601748 -643691 -696753 -759200
          -493944 -497552 -504950 -516516 -532848 -554784 -583326 -619256 -661826 -705779 -484269 -487490
          -494068 -504271 -518505 -537274 -561031 -589711 -621538 -651020 -474185 -476972 -482629 -491309
          -503222 -518556 -537314 -558908 -581401 -600708 -464102 -466451 -471184 -478360 -488026 -500149
          -514468 -530234 -545854 -558755 -454402 -456344 -460228 -466046 -473741 -483160 -493947 -505410
          -516403 -525405 -445409 -446997 -450153 -454826 -460910 -468204 -476359 -484816 -492794 -499392
          -437378 -438675 -441237 -444995 -449825 -455526 -461793 -468199 -474215 -479288 -430493 -431560
          -433660 -436717 -440610 -445155 -450098 -455119 -459850 -463930 -424878 -425773 -427529 -430073
          -433291 -437022 -441059 -445153 -449040 -452468 -420614 -421389 -422904 -425091 -427847 -431030
          -434468 -437961 -441304 -444309 -417751 -418448 -419811 -421775 -424243 -427091 -430164 -433296
          -436315 -439066 -416313 -416973 -418262 -420119 -422450 -425138 -428040 -431002 -433868 -436499
          -529634 -533240 -540499 -551490 -566298 -584956 -607349 -633050 -661076 -689568 -528825 -532493
          -539890 -551130 -566355 -585688 -609143 -636470 -666878 -698579 -527140 -530917 -538563 -550257
          -566255 -586862 -612378 -642974 -678424 -717465 -524460 -528368 -536318 -548578 -565571 -587877
          -616252 -651623 -695004 -746929 -520644 -524669 -532896 -545703 -563700 -587810 -619385 -660411
          -713819 -783551 -515573 -519657 -528045 -541209 -559945 -585508 -619851 -666008 -728552 -812872
          -509191 -513241 -521586 -534758 -553676 -579824 -615552 -664504 -731757 -821257 -501551 -505448
          -513488 -526210 -544542 -569989 -604883 -652513 -715986 -791743 -492827 -496452 -503922 -515715
          -532651 -556022 -587721 -630011 -683417 -738971 -483309 -486564 -493248 -503726 -518612 -538816
          -565542 -599862 -640704 -678925 -473367 -476195 -481966 -490914 -503403 -519907 -540876 -566236
          -593926 -617223 -463402 -465790 -470626 -478023 -488131 -501074 -516796 -534678 -552808 -567263
          -453794 -455768 -459734 -465715 -473714 -483651 -495243 -507793 -519911 -529487 -444871 -446483
          -449697 -454480 -460756 -468355 -476945 -485934 -494400 -501201 -436892 -438204 -440804 -444630
          -449574 -455444 -461936 -468593 -474816 -479952 -430045 -431121 -433243 -436339 -440294 -444927
          -449980 -455115 -459928 -464018 -424458 -425358 -427124 -429688 -432935 -436708 -440794 -444935
          -448848 -452265 -420214 -420989 -422508 -424702 -427470 -430669 -434124 -437631 -440976 -443963
          -417362 -418059 -419421 -421385 -423855 -426705 -429780 -432910 -435920 -438650 -415931 -416590
          -417876 -419729 -422058 -424742 -427639 -430593 -433446 -436056 -528410 -531969 -539132 -549980
          -564596 -583002 -605058 -630288 -657618 -685070 -527604 -531225 -538530 -549635 -564682 -583788
          -606946 -633846 -663580 -694169 -525928 -529662 -537225 -548802 -564658 -585105 -610430 -640740
          -675628 -713452 -523270 -527143 -535027 -547209 -564134 -586418 -614845 -650307 -693570 -744406
          -519499 -523500 -531693 -544485 -562546 -586896 -619025 -661050 -715774 -785951 -514499 -518578
          -526978 -540225 -559228 -585457 -621255 -670291 -737824 -828309 -508216 -512284 -520697 -534075
          -553521 -580910 -619405 -674276 -753260 -860347 -500693 -504631 -512798 -525847 -544965 -572229
          -611247 -668090 -750842 -856341 -492091 -495776 -503416 -515619 -533502 -559016 -595548 -648597
          -724157 -811185 -482688 -486012 -492880 -503786 -519615 -541880 -573099 -617136 -677706 -745225
          -472842 -475737 -481680 -491007 -504285 -522391 -546541 -577899 -615393 -648461 -462950 -465396
          -470375 -478067 -488749 -502764 -520385 -541346 -563555 -580978 -453397 -455415 -459488 -465678
          -474057 -484644 -497270 -511279 -525025 -535532 -444513 -446156 -449444 -454364 -460874 -468844
          -477970 -487632 -496751 -503855 -436561 -437894 -440541 -444453 -449533 -455606 -462367 -469332
          -475820 -481053 -429733 -430823 -432973 -436119 -440149 -444888 -450074 -455347 -460266 -464382