<?xml version="1.0"?>
<VTKFile type="UnstructuredGrid" version="0.1" byte_order="LittleEndian">
  <UnstructuredGrid>
    <Piece NumberOfCells="3800" NumberOfPoints="4620">
      <CellData Scalars="p (Pa)">
        <DataArray type="Float32" Name="p (Pa)" NumberOfComponents="1" format="ascii">
          -319436 -319795 -320498 -321514 -322800 -324299 -325942 -327652 -329350 -330962 -319323 -319683
          -320388 -321408 -322698 -324202 -325851 -327567 -329271 -330887 -319095 -319456 -320164 -321189
          -322487 -323999 -325657 -327383 -329097 -330720 -318743 -319106 -319818 -320848 -322152 -323673
          -325341 -327078 -328800 -330430 -318261 -318625 -319338 -320371 -321679 -323204 -324877 -326619
          -328346 -329976 -317643 -318006 -318717 -319746 -321051 -322572 -324241 -325978 -327698 -329320
          -316886 -317245 -317949 -318968 -320258 -321764 -323414 -325130 -326830 -328430 -315993 -316345
          -317036 -318035 -319300 -320774 -322389 -324068 -325728 -327290 -314975 -315317 -315987 -316957
          -318184 -319612 -321176 -322799 -324403 -325910 -313848 -314178 -314822 -315754 -316932 -318301
          -319797 -321349 -322880 -324320 -312641 -312955 -313569 -314455 -315574 -316873 -318291 -319759
          -321207 -322568 -311385 -311682 -312261 -313098 -314152 -315374 -316706 -318084 -319441 -320718
          -310119 -310397 -310941 -311725 -312712 -313855 -315098 -316382 -317648 -318839 -308884 -309145
          -309653 -310385 -311305 -312369 -313525 -314719 -315896 -317005 -307725 -307968 -308442 -309124
          -309981 -310972 -312047 -313157 -314252 -315285 -306682 -306909 -307353 -307990 -308791 -309715
          -310719 -311755 -312777 -313745 -305795 -306009 -306426 -307026 -307779 -308648 -309591 -310565
          -311528 -312441 -305098 -305302 -305698 -306269 -306984 -307810 -308706 -309632 -310549 -311420
          -304618 -304814 -305197 -305747 -306436 -307233 -308097 -308991 -309876 -310719 -304373 -304565
          -304941 -305480 -306157 -306938 -307787 -308664 -309534 -310362 -320652 -321029 -321766 -322833
          -324184 -325759 -327484 -329279 -331057 -332739 -320542 -320920 -321660 -322731 -324088 -325670
          -327404 -329207 -330994 -332682 -320316 -320697 -321442 -322520 -323887 -325481 -327229 -329048
          -330850 -332549 -319969 -320352 -321102 -322188 -323566 -325173 -326937 -328772 -330590 -332302
          -319490 -319874 -320628 -321719 -323104 -324721 -326496 -328343 -330171 -331891 -318873 -319256
          -320009 -321100 -322484 -324100 -325875 -327722 -329550 -331266 -318112 -318493 -319239 -320320
          -321692 -323294 -325052 -326882 -328690 -330387 -317211 -317585 -318317 -319379 -320724 -322295
          -324017 -325807 -327576 -329232 -316179 -316542 -317254 -318285 -319590 -321111 -322777 -324507
          -326213 -327810 -315034 -315384 -316068 -317057 -318309 -319765 -321358 -323008 -324633 -326154
          -313802 -314135 -314786 -315727 -316914 -318294 -319799 -321355 -322886 -324319 -312518 -312832
          -313446 -314332 -315448 -316743 -318152 -319607 -321037 -322375 -311220 -311514 -312089 -312918
          -313960 -315167 -316478 -317830 -319156 -320399 -309952 -310227 -310762 -311534 -312503 -313623
          -314838 -316089 -317317 -318469 -308760 -309015 -309514 -310230 -311130 -312169 -313295 -314453
          -315591 -316659 -307686 -307924 -308389 -309057 -309895 -310860 -311907 -312984 -314042 -315038
          -306772 -306995 -307431 -308058 -308843 -309748 -310728 -311737 -312730 -313667 -306052 -306265
          -306678 -307272 -308016 -308874 -309802 -310759 -311701 -312593 -305557 -305761 -306159 -306731
          -307447 -308271 -309165 -310086 -310995 -311856 -305304 -305504 -305894 -306454 -307156 -307964
          -308840 -309744 -310635 -311481 -323050 -323463 -324271 -325443 -326927 -328658 -330555 -332525
          -334470 -336296 -322944 -323359 -324172 -325350 -326844 -328587 -330498 -332483 -334444 -336283
          -322726 -323145 -323966 -325156 -326666 -328430 -330366 -332379 -334366 -336228 -322387 -322810
          -323640 -324844 -326373 -328161 -330126 -332171 -334191 -336079 -321915 -322342 -323178 -324394
          -325938 -327747 -329736 -331808 -333856 -335767 -321300 -321727 -322566 -323785 -325336 -327153
          -329153 -331237 -333297 -335217 -320534 -320959 -321793 -323005 -324547 -326353 -328342 -330414
          -332461 -334367 -319617 -320035 -320856 -322048 -323563 -325336 -327286 -329317 -331319 -333183
          -318558 -318965 -319763 -320920 -322390 -324107 -325992 -327951 -329878 -331670 -317375 -317766
          -318533 -319643 -321051 -322692 -324488 -326348 -328175 -329871 -316095 -316467 -317195 -318248
          -319580 -321129 -322819 -324564 -326273 -327857 -314753 -315103 -315788 -316777 -318025 -319471
          -321045 -322665 -324248 -325714 -313391 -313718 -314357 -315278 -316438 -317779 -319233 -320726
          -322182 -323532 -312055 -312359 -312952 -313806 -314878 -316115 -317453 -318824 -320160 -321399
          -310795 -311077 -311626 -312415 -313404 -314543 -315774 -317033 -318260 -319400 -309658 -309919
          -310428 -311159 -312074 -313127 -314262 -315424 -316556 -317611 -308688 -308932 -309406 -310088
          -310940 -311920 -312976 -314057 -315112 -316098 -307924 -308154 -308602 -309244 -310048 -310971
          -311966 -312985 -313981 -314914 -307396 -307617 -308046 -308662 -309432 -310317 -311270 -312247
          -313204 -314102 -307127 -307343 -307763 -308366 -309118 -309983 -310916 -311872 -312809 -313689
          -326635 -327104 -328025 -329359 -331054 -333032 -335201 -337452 -339664 -341721 -326537 -327009
          -327937 -329283 -330993 -332992 -335186 -337464 -339704 -341786 -326332 -326810 -327751 -329117
          -330856 -332891 -335129 -337457 -339748 -341874 -326007 -326494 -327449 -328840 -330612 -332692
          -334984 -337373 -339727 -341910 -325548 -326040 -327010 -328422 -330225 -332345 -334687 -337134
          -339549 -341787 -324937 -325433 -326411 -327835 -329656 -331801 -334174 -336657 -339111 -341385
          -324164 -324659 -325635 -327057 -328876 -331018 -333390 -335872 -338327 -340600 -323225 -323714
          -324676 -326078 -327869 -329976 -332306 -334742 -337147 -339370 -322127 -322603 -323539 -324902
          -326639 -328679 -330928 -333271 -335576 -337703 -320886 -321344 -322244 -323550 -325211 -327154
          -329287 -331500 -333667 -335661 -319532 -319967 -320820 -322056 -323623 -325448 -327442 -329500
          -331506 -333346 -318102 -318511 -319310 -320467 -321927 -323622 -325465 -327356 -329191 -330870
          -316642 -317022 -317765 -318837 -320186 -321745 -323433 -325157 -326824 -328346 -315203 -315554
          -316239 -317226 -318464 -319891 -321428 -322994 -324504 -325882 -313839 -314162 -314792 -315697
          -316831 -318133 -319532 -320954 -322323 -323575 -312603 -312901 -313480 -314312 -315351 -316543
          -317821 -319118 -320368 -321512 -311546 -311822 -312358 -313127 -314087 -315186 -316363 -317558
          -318711 -319770 -310712 -310970 -311473 -312193 -313090 -314117 -315217 -316334 -317413 -318409
          -310135 -310382 -310861 -311547 -312402 -313380 -314428 -315492 -316523 -317476 -309841 -310081
          -310548 -311217 -312051 -313004 -314025 -315063 -316069 -317002 -331415 -331963 -333040 -334605
          -336598 -338930 -341492 -344148 -346749 -349143 -331327 -331881 -332969 -334554 -336573 -338940
          -341544 -344249 -346901 -349340 -331141 -331705 -332815 -334433 -336499 -338929 -341612 -344406
          -347152 -349676 -330840 -331416 -332552 -334211 -336335 -338843 -341623 -344532 -347400 -350038
          -330400 -330988 -332148 -333846 -336026 -338609 -341484 -344508 -347500 -350258 -329799 -330395
          -331572 -333296 -335515 -338151 -341094 -344200 -347285 -350136 -329020 -329618 -330798 -332528
          -334756 -337404 -340364 -343493 -346606 -349485 -328054 -328645 -329813 -331524 -333724 -336336
          -339250 -342323 -345376 -348194 -326904 -327482 -328620 -330285 -332420 -334945 -337751 -340695
          -343603 -346275 -325588 -326143 -327237 -328831 -330869 -333267 -335914 -338671 -341374 -343841
          -324134 -324661 -325697 -327202 -329118 -331358 -333814 -336350 -338815 -341049 -322585 -323078
          -324046 -325450 -327227 -329293 -331541 -333843 -336062 -338060 -320990 -321447 -322342 -323636
          -325267 -327152 -329190 -331261 -333243 -335019 -319407 -319827 -320648 -321831 -323315 -325023
          -326858 -328713 -330478 -332057 -317899 -318283 -319031 -320107 -321453 -322995 -324644 -326304
          -327880 -329290 -316526 -316877 -317559 -318538 -319759 -321153 -322640 -324134 -325551 -326821
          -315348 -315670 -316296 -317191 -318306 -319577 -320930 -322288 -323578 -324740 -314416 -314714
          -315296 -316126 -317159 -318334 -319585 -320840 -322036 -323117 -313770 -314053 -314603 -315389
          -316366 -317476 -318658 -319845 -320978 -322006 -313440 -313715 -314250 -315013 -315960 -317038
          -318185 -319338 -320440 -321442 -337391 -338044 -339329 -341203 -343596 -346410 -349508 -352725
          -355865 -358725 -337319 -337981 -339284 -341188 -343625 -346496 -349667 -352969 -356199 -359142
          -337161 -337839 -339176 -341134 -343649 -346625 -349931 -353392 -356794 -359897 -336893 -337591
          -338970 -340995 -343608 -346718 -350196 -353866 -357498 -360824 -336483 -337201 -338621 -340712
          -343421 -346664 -350317 -354203 -358084 -361661 -335900 -336632 -338083 -340224 -343005 -346348
          -350134 -354190 -358272 -362065 -335118 -335856 -337320 -339480 -342289 -345671 -349508 -353630
          -357796 -361686 -334122 -334855 -336308 -338452 -341235 -344578 -348362 -352416 -356502 -360308
          -332910 -333628 -335048 -337136 -339839 -343069 -346701 -350560 -354415 -357973 -331500 -332191
          -333555 -335556 -338131 -341188 -344593 -348169 -351693 -354905 -329921 -330576 -331868 -333754
          -336168 -339009 -342142 -345389 -348541 -351374 -328219 -328832 -330036 -331789 -334019 -336622
          -339462 -342367 -345148 -347614 -326450 -327015 -328125 -329733 -331767 -334123 -336668 -339243
          -341678 -343814 -324680 -325197 -326208 -327668 -329504 -331617 -333880 -336149 -338275 -340129
          -322982 -323451 -324366 -325682 -327329 -329213 -331218 -333216 -335078 -336698 -321429 -321853
          -322679 -323863 -325339 -327020 -328800 -330568 -332213 -333647 -320090 -320475 -321225 -322296
          -323627 -325138 -326734 -328316 -329791 -331082 -319028 -319382 -320070 -321053 -322271 -323651
          -325106 -326550 -327899 -329088 -318291 -318624 -319270 -320192 -321333 -322623 -323985 -325336
          -326603 -327725 -317913 -318235 -318860 -319751 -320853 -322099 -323413 -324719 -325945 -327035
          -344559 -345345 -346896 -349167 -352082 -355525 -359337 -363304 -367170 -370660 -344508 -345308
          -346888 -349205 -352188 -355726 -359659 -363772 -367796 -371434 -344389 -345213 -346845 -349248
          -352356 -356067 -360228 -364618 -368950 -372882 -344167 -345023 -346720 -349230 -352497 -356432
          -360891 -365656 -370418 -374781 -343801 -344688 -346451 -349068 -352496 -356660 -361429 -366598
          -371847 -376730 -343247 -344158 -345974 -348675 -352229 -356571 -361588 -367088 -372760 -378133
          -342468 -343393 -345235 -347978 -351592 -356016 -361142 -366791 -372666 -378301 -341441 -342364
          -344201 -346934 -350526 -354910 -359973 -365528 -371281 -376779 -340160 -341065 -342865 -345534
          -349025 -353257 -358097 -363341 -368688 -373712 -338638 -339512 -341244 -343803 -347128 -351121
          -355627 -360424 -365208 -369594 -336908 -337737 -339378 -341790 -344902 -348599 -352711 -357003
          -361181 -364913 -335018 -335793 -337323 -339561 -342427 -345797 -349492 -353276 -356876 -360011
          -333032 -333747 -335152 -337198 -339799 -342827 -346104 -349406 -352485 -355114 -331028 -331677
          -332951 -334797 -337127 -339815 -342691 -345550 -348180 -350395 -329090 -329674 -330817 -332466
          -334533 -336899 -339407 -341878 -344131 -346020 -327306 -327830 -328851 -330316 -332145 -334223
          -336411 -338555 -340505 -342143 -325762 -326232 -327147 -328456 -330081 -331918 -333846 -335729
          -337445 -338896 -324533 -324960 -325791 -326976 -328443 -330096 -331826 -333517 -335063 -336382
          -323678 -324076 -324849 -325949 -327308 -328836 -330435 -331999 -333435 -334670 -323240 -323623
          -324366 -325424 -326728 -328194 -329726 -331228 -332610 -333804 -352900 -353850 -355732 -358498
          -362069 -366317 -371049 -375996 -380819 -385137 -352877 -353848 -355772 -358609 -362286 -366684
          -371614 -376806 -381900 -386473 -352808 -353816 -355818 -358784 -362658 -367335 -372643 -378311
          -383946 -389050 -352649 -353703 -355804 -358937 -363062 -368105 -373921 -380250 -386677 -392604
          -352343 -353444 -355648 -358949 -363334 -368759 -375117 -382188 -389563 -396565 -351832 -352973
          -355259 -358698 -363292 -369023 -375825 -383529 -391778 -399900 -351066 -352230 -354565 -358080
          -362784 -368666 -375677 -383681 -392381 -401180 -350010 -351178 -353518 -357035 -361727 -367570
          -374496 -382352 -390830 -399349 -348653 -349804 -352104 -355549 -360117 -365753 -372342 -379674
          -387390 -394901 -347005 -348119 -350341 -353652 -358007 -363315 -369409 -376017 -382733 -388993
          -345098 -346158 -348268 -351395 -355474 -360381 -365908 -371738 -377443 -382521 -342984 -343977
          -345947 -348850 -352606 -357068 -362005 -367078 -371869 -375949 -340736 -341651 -343458 -346108
          -349506 -353496 -357838 -362202 -366201 -369485 -338444 -339272 -340904 -343281 -346304 -349813
          -353574 -357287 -360618 -363292 -336209 -336949 -338401 -340504 -343156 -346202 -349425 -352565
          -355349 -357565 -334139 -334795 -336077 -337924 -340235 -342863 -345618 -348280 -350632 -352511
          -332338 -332920 -334054 -335680 -337699 -339979 -342355 -344642 -346667 -348303 -330900 -331422
          -332439 -333890 -335683 -337697 -339789 -341802 -343595 -345064 -329897 -330379 -331315 -332646
          -334285 -336122 -338026 -339862 -341507 -342871 -329383 -329844 -330738 -332009 -333571 -335319
          -337131 -338879 -340452 -341765 -362375 -363523 -365800 -369167 -373542 -378787 -384675 -390871
          -396921 -402299 -362387 -363564 -365904 -369374 -373909 -379386 -385591 -392187 -398687 -404492
          -362382 -363611 -366065 -369728 -374561 -380475 -387293 -394687 -402119 -408846 -362302 -363598
          -366198 -370109 -375332 -381831 -389494 -398039 -406906 -415168 -362074 -363441 -366192 -370361
          -375989 -383110 -391704 -401598 -412294 -422764 -361622 -363049 -365927 -370310 -376272 -383901
          -393271 -404353 -416847 -429886 -360880 -362345 -365304 -369814 -375960 -383847 -393582 -405220
          -418664 -433450 -359801 -361278 -364259 -368793 -374947 -382798 -392402 -403760 -416729 -430814
          -358364 -359827 -362772 -367232 -373241 -380811 -389899 -400351 -411824 -423616 -356576 -358000
          -360859 -365164 -370912 -378048 -386417 -395703 -405370 -414617 -354468 -355830 -358558 -362644
          -368050 -374665 -382247 -390356 -398338 -405406 -352095 -353376 -355931 -359739 -364734 -370766
          -377537 -384545 -391092 -396462 -349538 -350718 -353065 -356542 -361062 -366448 -372379 -378346
          -383687 -387797 -346901 -347966 -350078 -353184 -357181 -361878 -366952 -371936 -376265 -379479
          -344306 -345251 -347116 -349839 -353304 -357316 -361578 -365685 -369197 -371781 -341885 -342715
          -344343 -346701 -349670 -353062 -356614 -359998 -362881 -365024 -339770 -340497 -341916 -343958
          -346503 -349380 -352363 -355191 -357611 -359448 -338075 -338719 -339973 -341766 -343984 -346472
          -349037 -351467 -353566 -355197 -336891 -337479 -338619 -340241 -342239 -344470 -346763 -348940
          -350837 -352341 -336284 -336842 -337924 -339461 -341349 -343452 -345612 -347665 -349466 -350909
          -372920 -374296 -377036 -381106 -386433 -392873 -400170 -407904 -415479 -422166 -372975 -374391
          -377217 -381435 -386994 -393781 -401566 -409934 -418231 -425596 -373045 -374534 -377520 -382014
          -388012 -395465 -404214 -413883 -423735 -432632 -373061 -374644 -377838 -382690 -389269 -397630
          -407754 -419390 -431787 -443434 -372928 -374612 -378022 -383253 -390448 -399796 -411486 -425548
          -441451 -457503 -372552 -374321 -377919 -383470 -391177 -401340 -414354 -430618 -450198 -472073
          -371844 -373674 -377397 -383148 -391147 -401718 -415313 -432496 -453880 -480153 -370746 -372603
          -376376 -382189 -390231 -400766 -414127 -430709 -450942 -475261 -369228 -371078 -374829 -380581
          -388467 -398641 -411225 -426243 -443532 -462552 -367289 -369102 -372769 -378362 -385959 -395602
          -407200 -420410 -434516 -448390 -364958 -366705 -370229 -375580 -382792 -391817 -402410 -413957
          -425362 -435260 -362291 -363942 -367265 -372287 -379008 -387320 -396883 -406932 -416175 -423188
          -359376 -360901 -363962 -368562 -374665 -382114 -390514 -399061 -406479 -411497 -356332 -357708
          -360456 -364554 -369925 -376370 -383465 -390454 -396277 -400023 -353309 -354522 -356931 -360489
          -365084 -370490 -376297 -381864 -386408 -389338 -350470 -351523 -353600 -356636 -360498 -364955
          -369643 -374057 -377649 -380042 -347977 -348887 -350671 -353252 -356490 -360170 -363979 -367536
          -370457 -372488 -345973 -346768 -348320 -350545 -353307 -356408 -359590 -362555 -365026 -366820
          -344573 -345289 -346680 -348664 -351109 -353834 -356617 -359215 -361411 -363060 -343853 -344529
          -345840 -347702 -349990 -352530 -355120 -357543 -359610 -361189 -384443 -386075 -389334 -394198
          -400609 -408426 -417364 -426918 -436308 -444544 -384545 -386230 -389604 -394670 -401405 -409718
          -419377 -429890 -440387 -449632 -384701 -386484 -390074 -395518 -402870 -412154 -423273 -435827
          -448816 -460450 -384825 -386734 -390607 -396551 -404734 -415373 -428654 -444482 -461876 -478162
          -384801 -386846 -391019 -397495 -406577 -418729 -434582 -454734 -478853 -503545 -384510 -386676
          -391112 -398047 -407885 -421300 -439360 -463590 -495376 -532858 -383846 -386100 -390721 -397955
          -408231 -422248 -441118 -466517 -500753 -547462 -382732 -385034 -389749 -397106 -407487 -421468
          -439883 -463904 -495191 -536704 -381127 -383439 -388163 -395499 -405751 -419313 -436623 -458064
          -483849 -514022 -379025 -381310 -385971 -393179 -403170 -416181 -432302 -451202 -471806 -492320
          -376449 -378670 -383194 -390175 -399803 -412219 -427292 -444197 -460896 -474507 -373453 -375568
          -379871 -386495 -395598 -407262 -421247 -436466 -450281 -458999 -370131 -372094 -376076 -382179
          -390506 -401061 -413498 -426625 -437752 -443262 -366620 -368389 -371961 -377387 -384688 -393748
          -404090 -414510 -422815 -426750 -363099 -364650 -367758 -372422 -378577 -386009 -394184 -402070
          -408160 -411236 -359770 -361102 -363749 -367663 -372724 -378667 -384994 -390917 -395476 -398013
          -356835 -357969 -360206 -363469 -367607 -372354 -377287 -381834 -385388 -387564 -354471 -355447
          -357360 -360117 -363561 -367442 -371417 -375064 -377981 -379916 -352817 -353685 -355376 -357794
          -360782 -364113 -367498 -370609 -373151 -374936 -351966 -352780 -354359 -356608 -359372 -362438
          -365543 -368405 -370773 -372486 -396821 -398729 -402548 -408273 -415862 -425186 -435940 -447526
          -458962 -468939 -396973 -398948 -402916 -408902 -416919 -426913 -438665 -451615 -464644 -476022
          -397220 -399320 -403565 -410046 -418886 -430212 -444043 -460015 -476826 -491675 -397456 -399720
          -404333 -411473 -421442 -434679 -451723 -472887 -497075 -519364 -397546 -399987 -404994 -412849
          -424060 -439497 -460582 -489301 -526669 -564882 -397343 -399944 -405306 -413788 -426063 -443370
          -468041 -504539 -560248 -629303 -396718 -399444 -405068 -413977 -426878 -445021 -470623 -507542
          -561420 -634831 -395581 -398385 -404164 -413292 -426407 -444540 -469303 -503136 -549422 -612774
          -393879 -396718 -402561 -411753 -424842 -442599 -465979 -495944 -533060 -577295 -391596 -394430
          -400258 -409410 -422379 -439771 -462086 -489144 -519050 -547917 -388749 -391532 -397258 -406258
          -419022 -436128 -457926 -483599 -509192 -526973 -385389 -388061 -393566 -402227 -414542 -431115
          -452352 -477333 -500725 -509646 -381611 -384105 -389233 -397280 -408674 -423914 -443253 -465610
          -485478 -488574 -377574 -379822 -384421 -391570 -401531 -414504 -430239 -447063 -460264 -462848
          -373488 -375448 -379423 -385505 -393769 -404124 -415990 -427741 -436342 -438884 -369603 -371268
          -374609 -379627 -386255 -394237 -402935 -411106 -417011 -419401 -366165 -367564 -370341 -374437
          -379705 -385841 -392282 -398168 -402513 -404708 -363393 -364579 -366912 -370301 -374568 -379414
          -384384 -388886 -392322 -394343 -361452 -362493 -364526 -367445 -371068 -375119 -379222 -382940
          -385868 -387765 -360455 -361422 -363305 -365992 -369303 -372976 -376679 -380044 -382744 -384577
          -409903 -412099 -416502 -423120 -431929 -442808 -455436 -469132 -482714 -494546 -410104 -412382
          -416966 -423905 -433242 -444962 -458862 -474330 -490008 -503643 -410439 -412870 -417794 -425342
          -435707 -449115 -465717 -485234 -506128 -524454 -410785 -413417 -418794 -427164 -438954 -454836
          -475760 -502671 -534848 -564578 -410978 -413831 -419702 -428975 -442365 -461177 -487830 -526734
          -584108 -647435 -410849 -413906 -420232 -430316 -445112 -466494 -498568 -552334 -670743 -886571
          -410245 -413467 -420145 -430814 -446479 -469010 -502061 -553161 -637072 -757880 -409060 -412398
          -419314 -430340 -446411 -469094 -500989 -546310 -610934 -697974 -407230 -410639 -417699 -428933
          -445202 -467787 -498397 -538859 -589937 -649148 -404734 -408169 -415294 -426648 -443102 -465866
          -496276 -534783 -578165 -616624 -401579 -404987 -412075 -423432 -440033 -463303 -494922 -535374
          -578157 -599363 -397812 -401115 -408006 -419109 -435514 -458960 -491990 -537057 -588244 -587718
          -393532 -396632 -403099 -413521 -428925 -450968 -482130 -525265 -576557 -559097 -388915 -391712
          -397519 -406785 -420244 -438887 -463552 -493031 -517995 -513320 -384210 -386636 -391623 -399430
          -410415 -424852 -442386 -460685 -473635 -473776 -379715 -381755 -385895 -392225 -400805 -411483
          -423515 -435001 -442764 -444362 -375729 -377421 -380806 -385863 -392483 -400347 -408738 -416384
          -421678 -423652 -372513 -373928 -376724 -380819 -386030 -392012 -398180 -403706 -407718 -409732
          -370263 -371489 -373891 -377356 -381683 -386541 -391461 -395863 -399203 -401174 -369107 -370238
          -372443 -375602 -379505 -383844 -388205 -392119 -395166 -397098 -423518 -426006 -430998 -438510
          -448523 -460919 -475351 -491066 -506723 -520430 -423765 -426348 -431551 -439435 -450061 -463426
          -479327 -497090 -515177 -530984 -424180 -426942 -432543 -441136 -452954 -468273 -487293 -509726
          -533833 -555125 -424618 -427618 -433751 -443308 -456789 -474980 -498982 -529846 -566664 -601210
          -424891 -428153 -434874 -445502 -460872 -482488 -513050 -557084 -619632 -691018 -424801 -428311
          -435584 -447201 -464284 -488994 -525780 -584658 -689988 -892023 -424173 -427890 -435612 -447991
          -466250 -492655 -531583 -591975 -692539 -869280 -422886 -426760 -434815 -447729 -466704 -493769
          -532315 -587898 -668548 -779183 -420870 -424854 -433151 -446465 -465999 -493599 -531866 -583749
          -650380 -725546 -418098 -422146 -430604 -444253 -464420 -493125 -533034 -586256 -648973 -699817
          -414575 -418626 -427132 -440995 -461822 -492282 -536525 -599557 -677534 -700990 -410347 -414303
          -422656 -436410 -457467 -489356 -539071 -622884 -790486 -719221 -405516 -409250 -417146 -430197
          -450311 -481107 -530102 -618437 -863159 -673016 -400278 -403652 -410756 -422400 -440069 -466264
          -504678 -558129 -613389 -581707 -394917 -397832 -403901 -413635 -427854 -447585 -473300 -502109
          -522009 -515661 -389784 -392214 -397195 -404958 -415780 -429761 -446181 -462243 -472275 -471963
          -385231 -387222 -391235 -397312 -405418 -415270 -426004 -435799 -442107 -443510 -381560 -383202
          -386468 -391290 -397498 -404713 -412213 -418881 -423474 -425363 -378994 -380402 -383170 -387186
          -392230 -397928 -403705 -408825 -412571 -414571 -377677 -378967 -381490 -385115 -389613 -394625
          -399656 -404128 -407515 -409526 -437481 -440262 -445838 -454224 -465396 -479215 -495302 -512848
          -530412 -545958 -437767 -440656 -446471 -455272 -467116 -481983 -499636 -519343 -539474 -557282
          -438249 -441341 -447604 -457197 -470348 -487321 -508273 -532843 -559199 -582798 -438756 -442119
          -448985 -459656 -474635 -494691 -520845 -553955 -592842 -629611 -439070 -442733 -450269 -462148
          -479221 -502963 -535871 -581725 -643585 -711074 -438961 -442911 -451086 -464108 -483142 -510329
          -549751 -609337 -702831 -834518 -438232 -442427 -451138 -465089 -485609 -515071 -557819 -621886
          -720492 -859986 -436751 -441137 -450268 -464933 -486527 -517369 -561257 -624117 -713471 -829996
          -434446 -438975 -448433 -463692 -486248 -518464 -563770 -626296 -707925 -798999 -431297 -435919
          -445622 -461415 -485061 -519372 -568401 -636404 -721148 -794043 -427314 -431960 -441782 -457983
          -482771 -519969 -575866 -659067 -769672 -828642 -422549 -427108 -436815 -453051 -478504 -518267
          -582185 -690295 -892379 -928164 -417117 -421434 -430662 -446221 -470963 -510463 -575299 -681180
          -812306 -758786 -411229 -415134 -423457 -437424 -459491 -494462 -551383 -641839 -717842 -650539
          -405206 -408568 -415649 -427255 -444833 -470630 -506960 -550729 -575548 -558490 -399443 -402226
          -407983 -417108 -430173 -447699 -469229 -490846 -502590 -499159 -394339 -396597 -401181 -408203
          -417733 -429579 -442777 -454857 -461989 -462500 -390232 -392077 -395761 -401243 -408372 -416757
          -425554 -433333 -438425 -440102 -387366 -388934 -392026 -396532 -402224 -408689 -415263 -421046
          -425153 -427156 -385897 -387327 -390129 -394167 -399193 -404810 -410449 -415427 -419120 -421199
          -451592 -454667 -460828 -470075 -482359 -497506 -515092 -534265 -553563 -570916 -451914 -455111
          -461536 -471236 -484238 -500472 -519642 -540968 -562827 -582513 -452450 -455875 -462800 -473366
          -487761 -506173 -528655 -554771 -582772 -608413 -453001 -456730 -464326 -476071 -492416 -514005
          -541664 -576082 -616332 -655723 -453306 -457371 -465712 -478785 -497376 -522782 -557163 -603932
          -667008 -742037 -453100 -457483 -466534 -480873 -501612 -530707 -571812 -632408 -730232 -924959
          -452160 -456811 -466455 -481843 -504306 -536139 -581418 -647591 -747356 -888850 -450349 -455206
          -465314 -481529 -505345 -539212 -587104 -655242 -751678 -876648 -447607 -452615 -463083 -479999
          -505070 -541033 -592025 -663552 -759765 -870506 -443933 -449037 -459774 -477320 -503758 -542508
          -598788 -679154 -785641 -890575 -439361 -444485 -455353 -473383 -501216 -543476 -607750 -704049
          -833478 -944979 -433962 -438987 -449734 -467857 -496624 -542257 -616045 -733634 -884454 -940968
          -427872 -432629 -442860 -460321 -488694 -535690 -617385 -758217 -874878 -814773 -421323 -425622
          -434854 -450596 -476308 -520149 -605928 -840035 -902711 -713592 -414662 -418352 -426179 -439193
          -459452 -490756 -539268 -607545 -630802 -594681 -408318 -411358 -417680 -427808 -442580 -462998
          -489199 -516592 -528638 -521344 -402723 -405174 -410171 -417878 -428458 -441819 -456981 -470945
          -478503 -478143 -398233 -400226 -404213 -410172 -417972 -427217 -436986 -445604 -451040 -452559
          -395109 -396794 -400123 -404985 -411149 -418177 -425339 -431620 -436005 -438041 -393509 -395042
          -398049 -402390 -407805 -413868 -419959 -425321 -429261 -431423 -465637 -469015 -475773 -485890
          -499278 -515701 -534674 -555316 -576201 -595348 -465994 -469511 -476567 -487186 -501341 -518878
          -539400 -562077 -585349 -606742 -466578 -470356 -477977 -489555 -505202 -524961 -548692 -575805
          -604632 -631563 -467150 -471274 -479652 -492537 -510273 -533265 -561939 -596499 -635776 -674377
          -467398 -471897 -481106 -495452 -515593 -542471 -577498 -622725 -679602 -742168 -467004 -471845
          -481817 -497528 -519961 -550657 -592210 -649317 -729345 -834630 -465715 -470822 -481393 -498179
          -522433 -556152 -602632 -667455 -758485 -876738 -463399 -468690 -479683 -497265 -522929 -559052
          -609410 -679822 -777435 -901209 -460029 -465434 -476721 -494931 -521855 -560386 -615040 -692339
          -798609 -923704 -455647 -461105 -472578 -491311 -519526 -560940 -621504 -709668 -831328 -951835
          -450330 -455761 -467272 -486353 -515791 -560516 -628748 -731488 -868050 -959136 -444186 -449471
          -460765 -479788 -509945 -557748 -635030 -757539 -906228 -928789 -437382 -442355 -453041 -471256
          -500833 -549917 -636156 -790042 -932561 -834387 -430176 -434650 -444249 -460602 -487305 -533020
          -624198 -890487 -852912 -721525 -422933 -426762 -434875 -448352 -469313 -501711 -552066 -622911
          -637034 -605546 -416096 -419243 -425785 -436254 -451506 -472558 -499520 -527468 -538617 -531926