<?xml version="1.0"?>
<VTKFile type="UnstructuredGrid" version="0.1" byte_order="LittleEndian">
  <UnstructuredGrid>
    <Piece NumberOfCells="3800" NumberOfPoints="4620">
      <CellData Scalars="p (Pa)">
        <DataArray type="Float32" Name="p (Pa)" NumberOfComponents="1" format="ascii">
          -332422 -333680 -334710 -335505 -336082 -336472 -336714 -336851 -336919 -336945 -332349 -333606
          -334632 -335421 -335990 -336371 -336605 -336734 -336796 -336820 -332184 -333440 -334458 -335235
          -335788 -336153 -336370 -336486 -336539 -336557 -331895 -333146 -334153 -334913 -335446 -335788
          -335985 -336084 -336124 -336136 -331439 -332681 -333673 -334413 -334923 -335241 -335416 -335496
          -335524 -335529 -330771 -331998 -332972 -333691 -334178 -334474 -334630 -334694 -334710 -334709
          -329858 -331063 -332014 -332712 -333179 -333458 -333599 -333652 -333660 -333656 -328684 -329857
          -330782 -331459 -331911 -332179 -332312 -332360 -332366 -332360 -327256 -328389 -329284 -329941
          -330381 -330645 -330778 -330827 -330835 -330831 -325605 -326690 -327552 -328188 -328621 -328885
          -329024 -329081 -329095 -329095 -323785 -324816 -325641 -326257 -326684 -326952 -327100 -327169
          -327193 -327198 -321862 -322836 -323622 -324217 -324638 -324911 -325071 -325153 -325188 -325200
          -319910 -320827 -321573 -322147 -322562 -322840 -323012 -323107 -323154 -323172 -318005 -318868
          -319576 -320129 -320536 -320819 -321001 -321109 -321166 -321190 -316221 -317033 -317706 -318239
          -318640 -318925 -319116 -319234 -319301 -319330 -314625 -315392 -316034 -316549 -316943 -317230
          -317428 -317555 -317629 -317663 -313274 -314005 -314622 -315121 -315509 -315797 -316000 -316134
          -316214 -316251 -312218 -312921 -313518 -314005 -314388 -314677 -314883 -315022 -315106 -315146
          -311492 -312177 -312760 -313240 -313620 -313908 -314116 -314258 -314346 -314387 -311124 -311798
          -312375 -312851 -313229 -313517 -313727 -313870 -313959 -314001 -334251 -335543 -336586 -337376
          -337932 -338292 -338502 -338609 -338655 -338669 -334199 -335491 -336529 -337311 -337857 -338206
          -338405 -338503 -338541 -338553 -334072 -335364 -336394 -337160 -337687 -338015 -338194 -338274
          -338301 -338306 -333831 -335119 -336137 -336884 -337384 -337684 -337837 -337896 -337907 -337904
          -333421 -334703 -335705 -336428 -336900 -337171 -337296 -337332 -337326 -337315 -332789 -334058
          -335040 -335739 -336185 -336428 -336529 -336545 -336525 -336507 -331889 -333136 -334096 -334771
          -335195 -335419 -335503 -335506 -335477 -335454 -330698 -331912 -332846 -333502 -333911 -334124
          -334201 -334199 -334169 -334144 -329223 -330395 -331298 -331936 -332337 -332549 -332629 -332632
          -332605 -332583 -327500 -328620 -329490 -330110 -330507 -330726 -330817 -330832 -330814 -330798
          -325589 -326651 -327482 -328084 -328481 -328710 -328817 -328849 -328845 -328836 -323564 -324564
          -325355 -325939 -326334 -326575 -326700 -326751 -326762 -326761 -321507 -322444 -323195 -323759
          -324153 -324404 -324547 -324616 -324643 -324651 -319499 -320378 -321089 -321633 -322023 -322284
          -322442 -322529 -322570 -322585 -317619 -318444 -319119 -319644 -320030 -320297 -320468 -320570
          -320623 -320645 -315938 -316715 -317358 -317866 -318248 -318520 -318702 -318815 -318878 -318906
          -314516 -315255 -315872 -316366 -316743 -317018 -317207 -317330 -317401 -317433 -313404 -314114
          -314711 -315194 -315567 -315844 -316039 -316168 -316245 -316280 -312642 -313332 -313915 -314390
          -314761 -315040 -315238 -315371 -315451 -315489 -312254 -312934 -313511 -313982 -314352 -314630
          -314830 -314965 -315048 -315086 -337920 -339280 -340347 -341122 -341632 -341928 -342069 -342113
          -342111 -342100 -337914 -339277 -340338 -341101 -341596 -341875 -341999 -342029 -342018 -342002
          -337874 -339239 -340290 -341032 -341497 -341745 -341838 -341844 -341814 -341789 -337742 -339109
          -340146 -340858 -341285 -341491 -341546 -341518 -341466 -341429 -337443 -338809 -339827 -340506
          -340892 -341054 -341067 -341006 -340930 -340881 -336896 -338252 -339249 -339897 -340245 -340368
          -340347 -340257 -340160 -340101 -336029 -337366 -338340 -338961 -339282 -339380 -339336 -339228
          -339119 -339053 -334805 -336108 -337056 -337658 -337967 -338055 -338006 -337894 -337783 -337716
          -333229 -334484 -335402 -335991 -336300 -336396 -336358 -336257 -336154 -336092 -331348 -332543
          -333426 -334005 -334322 -334438 -334424 -334345 -334259 -334206 -329240 -330366 -331210 -331778
          -332106 -332248 -332265 -332216 -332152 -332110 -326997 -328050 -328851 -329406 -329745 -329913
          -329963 -329946 -329906 -329878 -324716 -325695 -326453 -326993 -327340 -327532 -327613 -327626
          -327611 -327596 -322491 -323401 -324117 -324640 -324993 -325204 -325312 -325353 -325360 -325357
          -320409 -321258 -321935 -322442 -322797 -323024 -323154 -323218 -323243 -323251 -318549 -319346
          -319989 -320482 -320837 -321076 -321223 -321306 -321347 -321362 -316979 -317732 -318349 -318829
          -319184 -319431 -319592 -319689 -319741 -319763 -315752 -316474 -317070 -317540 -317894 -318148
          -318318 -318425 -318486 -318513 -314911 -315612 -316194 -316658 -317011 -317268 -317445 -317559
          -317625 -317655 -314484 -315174 -315749 -316210 -316563 -316821 -317001 -317118 -317187 -317218
          -343521 -344988 -346088 -346831 -347260 -347447 -347471 -347410 -347331 -347279 -343601 -345074
          -346167 -346890 -347294 -347452 -347450 -347368 -347273 -347213 -343721 -345202 -346280 -346968
          -347324 -347430 -347378 -347256 -347132 -347058 -343795 -345288 -346346 -346986 -347277 -347314
          -347199 -347024 -346864 -346771 -343710 -345212 -346245 -346833 -347055 -347019 -346836 -346606
          -346408 -346295 -343332 -344835 -345843 -346383 -346544 -346445 -346205 -345929 -345698 -345569
          -342541 -344030 -345013 -345519 -345642 -345505 -345231 -344927 -344678 -344538 -341267 -342721
          -343679 -344169 -344284 -344142 -343865 -343559 -343307 -343167 -339516 -340911 -341842 -342332
          -342465 -342349 -342099 -341816 -341580 -341447 -337362 -338680 -339577 -340074 -340240 -340171
          -339970 -339728 -339522 -339405 -334916 -336145 -337001 -337503 -337707 -337694 -337552 -337363
          -337195 -337098 -332306 -333440 -334250 -334751 -334989 -335031 -334950 -334816 -334690 -334615
          -329652 -330694 -331456 -331951 -332216 -332306 -332280 -332198 -332112 -332059 -327069 -328026
          -328742 -329227 -329512 -329641 -329662 -329627 -329576 -329542 -324658 -325542 -326216 -326690
          -326989 -327148 -327209 -327211 -327190 -327173 -322509 -323331 -323970 -324434 -324742 -324925
          -325016 -325049 -325052 -325048 -320698 -321472 -322083 -322538 -322853 -323054 -323168 -323223
          -323245 -323251 -319286 -320024 -320615 -321063 -321383 -321596 -321727 -321799 -321833 -321847
          -318320 -319034 -319611 -320055 -320378 -320599 -320740 -320823 -320866 -320884 -317829 -318532
          -319102 -319544 -319868 -320093 -320240 -320327 -320375 -320395 -351195 -352810 -353949 -354631
          -354928 -354943 -354789 -354572 -354376 -354263 -351424 -353050 -354175 -354825 -355077 -355045
          -354847 -354593 -354372 -354246 -351821 -353468 -354569 -355156 -355324 -355201 -354919 -354599
          -354331 -354182 -352265 -353942 -355009 -355510 -355563 -355319 -354928 -354519 -354192 -354011
          -352574 -354283 -355312 -355717 -355644 -355269 -354761 -354259 -353868 -353655 -352524 -354257
          -355250 -355569 -355386 -354899 -354291 -353710 -353264 -353024 -351894 -353629 -354593 -354860
          -354613 -354063 -353399 -352772 -352294 -352037 -350550 -352247 -353192 -353455 -353210 -352663
          -352000 -351372 -350892 -350633 -348506 -350124 -351052 -351346 -351160 -350677 -350071 -349486
          -349034 -348789 -345898 -347406 -348307 -348646 -348548 -348167 -347655 -347147 -346747 -346528
          -342910 -344291 -345152 -345530 -345521 -345253 -344853 -344438 -344104 -343919 -339723 -340973
          -341783 -342186 -342256 -342092 -341802 -341483 -341220 -341072 -336499 -337624 -338380 -338794
          -338924 -338851 -338658 -338428 -338230 -338118 -333375 -334390 -335095 -335511 -335686 -335684
          -335573 -335419 -335280 -335199 -330472 -331395 -332054 -332469 -332678 -332732 -332686 -332594
          -332503 -332449 -327894 -328744 -329366 -329779 -330013 -330110 -330115 -330072 -330019 -329985
          -325728 -326522 -327117 -327528 -327781 -327910 -327953 -327947 -327923 -327905 -324044 -324798
          -325374 -325784 -326050 -326203 -326273 -326293 -326290 -326283 -322894 -323621 -324185 -324595
          -324871 -325038 -325126 -325163 -325173 -325173 -322310 -323025 -323583 -323993 -324273 -324448
          -324545 -324590 -324606 -324609 -361125 -362934 -364107 -364683 -364775 -364535 -364121 -363677
          -363317 -363117 -361601 -363431 -364580 -365096 -365109 -364786 -364298 -363795 -363394 -363174
          -362472 -364344 -365448 -365849 -365708 -365226 -364596 -363981 -363504 -363245 -363567 -365504
          -366544 -366779 -366424 -365724 -364904 -364140 -363562 -363252 -364603 -366622 -367588 -367631
          -367031 -366089 -365060 -364135 -363448 -363084 -365191 -367292 -368190 -368055 -367236 -366081
          -364870 -363806 -363026 -362614 -364903 -367048 -367905 -367670 -366730 -365457 -364144 -362997
          -362159 -361719 -363453 -365556 -366415 -366206 -365294 -364041 -362736 -361588 -360745 -360299
          -360899 -362877 -363752 -363658 -362897 -361787 -360596 -359527 -358731 -358308 -357528 -359328
          -360201 -360245 -359688 -358788 -357778 -356846 -356139 -355760 -353671 -355271 -356112 -356268
          -355907 -355228 -354422 -353654 -353061 -352738 -349602 -351003 -351790 -352020 -351819 -351336
          -350723 -350121 -349645 -349385 -345528 -346752 -347475 -347749 -347666 -347343 -346897 -346443
          -346078 -345876 -341616 -342690 -343355 -343653 -343658 -343458 -343148 -342819 -342548 -342397
          -338003 -338961 -339578 -339891 -339961 -339857 -339654 -339424 -339231 -339121 -334811 -335681
          -336263 -336590 -336709 -336678 -336557 -336405 -336271 -336194 -332141 -332947 -333506 -333844
          -334002 -334026 -333967 -333872 -333783 -333731 -330073 -330835 -331380 -331728 -331914 -331977
          -331962 -331908 -331851 -331816 -328663 -329399 -329935 -330291 -330495 -330585 -330598 -330570
          -330533 -330509 -327950 -328672 -329205 -329564 -329778 -329881 -329908 -329893 -329866 -329847
          -373521 -375575 -376766 -377166 -376952 -376345 -375567 -374812 -374226 -373908 -374400 -376490
          -377636 -377928 -377573 -376824 -375922 -375070 -374419 -374069 -376067 -378236 -379290 -379362
          -378728 -377701 -376559 -375523 -374749 -374337 -378303 -380604 -381525 -381266 -380223 -378801
          -377327 -376040 -375100 -374606 -380693 -383190 -383942 -383267 -381731 -379850 -378000 -376433
          -375310 -374725 -382558 -385294 -385875 -384784 -382777 -380474 -378287 -376470 -375182 -374516
          -383012 -385927 -386410 -385079 -382805 -380263 -377878 -375909 -374515 -373794 -381365 -384219
          -384779 -383563 -381383 -378895 -376527 -374550 -373139 -372405 -377843 -380444 -381136 -380264
          -378456 -376278 -374133 -372294 -370958 -370257 -373136 -375399 -376167 -375659 -374313 -372566
          -370762 -369164 -367978 -367346 -367868 -369780 -370546 -370313 -369377 -368053 -366619 -365307
          -364310 -363774 -362450 -364039 -364748 -364687 -364060 -363091 -361994 -360961 -360163 -359729
          -357128 -358448 -359082 -359121 -358711 -358016 -357198 -356412 -355797 -355460 -352080 -353194
          -353762 -353862 -353606 -353117 -352519 -351935 -351473 -351219 -347458 -348423 -348946 -349092
          -348950 -348616 -348189 -347762 -347423 -347235 -343401 -344265 -344762 -344948 -344894 -344679
          -344380 -344075 -343828 -343691 -340027 -340824 -341311 -341532 -341547 -341421 -341218 -341002
          -340823 -340724 -337425 -338181 -338665 -338915 -338982 -338920 -338786 -338632 -338502 -338428
          -335660 -336390 -336875 -337146 -337247 -337228 -337138 -337024 -336924 -336867 -334768 -335487
          -335973 -336255 -336374 -336375 -336307 -336212 -336127 -336077 -388595 -390947 -392122 -392250
          -391596 -390482 -389214 -388044 -387163 -386692 -390115 -392524 -393611 -393541 -392644 -391293
          -389822 -388500 -387517 -386996 -393088 -395633 -396534 -396047 -394648 -392818 -390950 -389331
          -388153 -387536 -397308 -400116 -400715 -399557 -397381 -394843 -392407 -390372 -388925 -388176
          -402248 -405524 -405690 -403592 -400402 -396992 -393884 -391370 -389616 -388718 -406773 -410764
          -410391 -407217 -402968 -398702 -394957 -391995 -389954 -388914 -408943 -413645 -412857 -408965
          -404058 -399274 -395136 -391882 -389642 -388501 -406802 -411299 -410904 -407423 -402772 -398108
          -393994 -390705 -388413 -387235 -401246 -405050 -405216 -402742 -399012 -395020 -391331 -388273
          -386087 -384949 -394066 -397108 -397604 -396072 -393383 -390271 -387221 -384578 -382631 -381600
          -386463 -388820 -389400 -388503 -386654 -384348 -381961 -379808 -378178 -377302 -378986 -380778
          -381302 -380764 -379491 -377809 -375998 -374319 -373024 -372321 -371845 -373213 -373643 -373299
          -372401 -371171 -369818 -368545 -367555 -367014 -365172 -366251 -366611 -366389 -365744 -364841
          -363837 -362889 -362150 -361745 -359118 -360019 -360350 -360223 -359767 -359106 -358365 -357665
          -357119 -356821 -353844 -354644 -354977 -354938 -354629 -354153 -353609 -353094 -352692 -352473
          -349490 -350235 -350588 -350626 -350434 -350098 -349701 -349319 -349021 -348858 -346156 -346872
          -347249 -347350 -347247 -347012 -346719 -346431 -346204 -346080 -343905 -344607 -345004 -345149
          -345105 -344937 -344710 -344482 -344300 -344199 -342773 -343468 -343876 -344044 -344029 -343895
          -343700 -343501 -343340 -343252 -406506 -409202 -410311 -410041 -408791 -407010 -405109 -403413
          -402159 -401496 -408999 -411777 -412715 -412099 -410442 -408279 -406062 -404133 -402726 -401988
          -414040 -417034 -417590 -416207 -413677 -410721 -407869 -405478 -403774 -402890 -421630 -425124
          -424991 -422258 -418291 -414103 -410309 -407251 -405124 -404036 -431374 -436005 -434681 -429799
          -423770 -417959 -412991 -409131 -406504 -405174 -441657 -448648 -445326 -437496 -429029 -421481
          -415327 -410674 -407550 -405980 -448225 -458610 -452808 -442457 -432232 -423515 -416562 -411343
          -407842 -406080 -444519 -453524 -449834 -440970 -431405 -422917 -415962 -410616 -406963 -405104
          -434244 -440702 -439397 -433578 -426312 -419277 -413119 -408127 -404591 -402758 -422287 -426729
          -426593 -423199 -418286 -413046 -408075 -403770 -400590 -398906 -410796 -413775 -413959 -411974
          -408748 -405013 -401217 -397747 -395093 -393661 -400219 -402151 -402279 -400987 -398785 -396109
          -393277 -390615 -388539 -387404 -390456 -391699 -391700 -390745 -389147 -387181 -385078 -383093
          -381538 -380684 -381457 -382313 -382252 -381508 -380303 -378829 -377263 -375800 -374660 -374035
          -373358 -374035 -373996 -373433 -372520 -371409 -370241 -369163 -368332 -367878 -366364 -366980
          -367014 -366621 -365945 -365111 -364238 -363440 -362830 -362500 -360647 -361255 -361377 -361136
          -360650 -360029 -359372 -358774 -358319 -358074 -356309 -356928 -357129 -357009 -356669 -356203
          -355700 -355239 -354889 -354700 -353403 -354035 -354292 -354256 -354013 -353649 -353244 -352870
          -352584 -352430 -351948 -352587 -352874 -352879 -352685 -352372 -352015 -351682 -351427 -351290
          -427274 -430351 -431325 -430524 -428516 -425909 -423236 -420904 -419203 -418309 -431156 -434325
          -434983 -433610 -430960 -427771 -424629 -421958 -420036 -419035 -439282 -442731 -442641 -439934
          -435858 -431428 -427323 -423965 -421607 -420395 -452307 -456601 -454987 -449718 -443135 -436680
          -431088 -426708 -423713 -422195 -470797 -477784 -472898 -462921 -452361 -443034 -435485 -429815
          -426031 -424136 -493644 -509153 -496229 -478178 -462181 -449452 -439764 -432728 -428107 -425810
          -512750 -549974 -518159 -490365 -469529 -454147 -442840 -434712 -429375 -426716 -503456 -528405
          -511494 -489419 -470072 -454969 -443491 -434958 -429211 -426309 -481571 -494614 -489167 -476502
          -462893 -450911 -440882 -432783 -427046 -424080 -460372 -467425 -465953 -459385 -451026 -442694
          -434834 -427786 -422502 -419702 -442612 -446369 -445785 -442161 -437058 -431449 -425645 -420024
          -415614 -413224 -427563 -429315 -428637 -426218 -422801 -418867 -414630 -410435 -407072 -405220
          -414101 -414735 -413861 -411953 -409411 -406497 -403380 -400344 -397914 -396569 -401749 -401933
          -401050 -399477 -397486 -395258 -392941 -390756 -389034 -388084 -390682 -390798 -390076 -388826
          -387267 -385552 -383818 -382232 -381008 -380340 -381226 -381431 -380944 -380011 -378817 -377506
          -376201 -375035 -374151 -373673 -373601 -373930 -373671 -373017 -372126 -371128 -370138 -369264
          -368608 -368257 -367896 -368328 -368253 -367817 -367156 -366390 -365622 -364944 -364440 -364170
          -364114 -364617 -364664 -364376 -363870 -363255 -362628 -362074 -361661 -361440 -362233 -362770
          -362879 -362664 -362235 -361696 -361138 -360642 -360272 -360075 -450683 -454161 -454939 -453501
          -450610 -447052 -443494 -440437 -438224 -437068 -456375 -459897 -460138 -457829 -454005 -449621
          -445411 -441884 -439371 -438068 -468684 -472403 -471302 -466894 -460937 -454754 -449176 -444686
          -441565 -439969 -489624 -494320 -490218 -481504 -471604 -462363 -454598 -448631 -444596 -442563
          -522369 -532211 -520272 -502651 -485942 -472066 -461261 -453334 -448113 -445515 -569793 -608707
          -566885 -530184 -502752 -482771 -468352 -458178 -451597 -448348 -623865 -867865 -629773 -557549
          -517796 -492088 -474499 -462263 -454347 -450433 -596609 -693285 -612643 -560721 -522458 -496304
          -477874 -464459 -455498 -451005 -547978 -577457 -561353 -536499 -512264 -492752 -476824 -463550
          -454084 -449226 -510699 -522284 -518507 -507426 -494507 -482403 -470389 -458362 -449187 -444382
          -483940 -488277 -486352 -480652 -473533 -466051 -457618 -448109 -440434 -436309 -463047 -463576
          -461293 -457318 -452573 -447352 -441314 -434577 -428982 -425900 -444527 -443319 -440695 -437333
          -433614 -429605 -425183 -420565 -416754 -414632 -427230 -425748 -423303 -420434 -417384 -414211
          -410927 -407737 -405174 -403753 -411733 -410628 -408694 -406388 -403938 -401445 -398986 -396733
          -394981 -394022 -398700 -398098 -396744 -395008 -393110 -391182 -389332 -387700 -386467 -385801
          -388409 -388230 -387376 -386133 -384702 -383225 -381821 -380606 -379705 -379224 -380858 -380973
          -380488 -379620 -378545 -377403 -376311 -375372 -374683 -374318 -375928 -376222 -375972 -375351
          -374512 -373589 -372695 -371927 -371364 -371066 -373499 -373875 -373739 -373238 -372517 -371702
          -370905 -370217 -369714 -369448 -476210 -480114 -480688 -478585 -474768 -470204 -465702 -461864
          -459098 -457656 -483987 -487782 -487536 -484239 -479184 -473538 -468188 -463739 -460583 -458951
          -501258 -504768 -502432 -496234 -488318 -480287 -473132 -467417 -463461 -461443 -532029 -535186
          -528193 -516031 -502729 -490545 -480433 -472721 -467530 -464920 -583085 -588130 -570148 -545870
          -522983 -504218 -489805 -479321 -472446 -469035 -658930 -686628 -636656 -587790 -548772 -520552
          -500588 -486652 -477685 -473273 -726401 -917543 -728771 -638045 -576280 -537176 -511480 -493836
          -482486 -476906 -708455 -934892 -751185 -669106 -593040 -548943 -520374 -499600 -485791 -478944
          -628971 -681631 -655982 -618958 -578781 -549238 -524677 -502133 -486115 -478105 -573197 -589857
          -584492 -569765 -553046 -538987 -521530 -498514 -481468 -472981 -536891 -540158 -536171 -528713
          -520837 -513388 -502483 -484462 -470181 -462868 -509765 -506182 -500740 -494799 -489129 -483332
          -475357 -463975 -454367 -449197 -484470 -478504 -472483 -466946 -461896 -456830 -450851 -443794
          -437812 -434499 -459520 -454334 -449056 -444211 -439785 -435498 -431023 -426460 -422722 -420644
          -437210 -433695 -429722 -425856 -422225 -418768 -415422 -412322 -409894 -408561 -418953 -416910
          -414201 -411329 -408511 -405821 -403314 -401118 -399462 -398568 -404986 -403971 -402246 -400207
          -398090 -396031 -394136 -392523 -391335 -390703 -395010 -394637 -393586 -392159 -390573 -388984
          -387515 -386278 -385378 -384904 -388623 -388612 -387972 -386934 -385696 -384415 -383215 -382205
          -381475 -381091 -385513 -385663 -385214 -384364 -383297 -382166 -381098 -380195 -379543 -379201
          -503056 -507486 -507957 -505284 -500608 -495071 -489628 -484994 -481657 -479918 -512882 -516989
          -516350 -512187 -505999 -499147 -492671 -487290 -483473 -481500 -535155 -538194 -534678 -526904
          -517227 -507467 -498777 -491832 -487022 -484567 -576515 -576431 -566503 -551430 -535188 -520323
          -507959 -498502 -492124 -488914 -650444 -642062 -618313 -589164 -561156 -538015 -520147 -507074
          -498472 -494198 -771689 -750341 -699726 -645484 -596416 -560541 -535096 -517180 -505596 -499895
          -829665 -893436 -815965 -731328 -640726 -586790 -552273 -528281 -512804 -505229 -800128 -943396
          -935162 -906451 -685038 -612462 -570877 -539609 -519027 -509036 -711303 -766606 -762019 -727307
          -664610 -626503 -590269 -549604 -522365 -509546 -645706 -662869 -659455 -646181 -632715 -630952
          -608964 -552882 -519162 -504366 -604072 -601321 -593880 -586092 -581790 -582258 -575430 -532494
          -504457 -491739 -572471 -557966 -546431 -538033 -532583 -528336 -519475 -498789 -482293 -473955
          -537671 -520895 -508719 -499986 -493492 -487606 -479956 -469196 -460091 -455171 -500226 -487720
          -477732 -470029 -463856 -458285 -452412 -446082 -440857 -437975 -467425 -459677 -452579 -446558
          -441429 -436822 -432440 -428343 -425125 -423364 -441763 -437421 -432778 -428416 -424465 -420880
          -417623 -414793 -412666 -411522 -422947 -420703 -417810 -414777 -411845 -409120 -406678 -404628
          -403130 -402337 -409948 -408905 -407139 -405042 -402869 -400782 -398902 -397343 -396221 -395632
          -401818 -401413 -400299 -398782 -397098 -395424 -393897 -392632 -391725 -391252 -397911 -397780
          -396963 -395721 -394274 -392802 -391445 -390317 -389510 -389089 -530331 -535524 -536153 -533143
          -527786 -521386 -515055 -509639 -505728 -503687 -541716 -546480 -545799 -541080 -534004 -526102
          -518580 -512296 -507824 -505508 -567566 -570891 -566807 -557976 -546962 -535756 -525687 -517579
          -511938 -509052 -615625 -614683 -603027 -585997 -567705 -550765 -536469 -525410 -517900 -514109
          -701321 -688735 -661024 -628573 -597707 -571670 -551039 -535654 -525429 -520330 -841589 -806352
          -748957 -689833 -638368 -598993 -569580 -548149 -534107 -527174 -945320 -947725 -864062 -770359
          -688803 -632964 -592720 -562841 -543333 -533819 -884451 -949540 -942389 -845948 -737807 -673504
          -623282 -580090 -552157 -538956 -793562 -837732 -832171 -792647 -749423 -724826 -674710 -600705
          -558572 -540412 -727971 -738010 -731941 -723983 -736827 -828621 -825348 -621142 -557494 -534892
          -688236 -670228 -655355 -648131 -654182 -681303 -739425 -590378 -538666 -519474 -655954 -617969
          -595789 -583809 -579225 -578458 -572216 -534383 -509171 -497510 -605319 -568865 -547258 -534069
          -525623 -518617 -509090 -493709 -481304 -474839 -548490 -524215 -507605 -496175 -487790 -480608
          -473110 -464878 -458193 -454562 -501108 -487155 -475946 -467275 -460368 -454431 -448907 -443784
          -439803 -437642 -465990 -458531 -451490 -445387 -440160 -435594 -431542 -428072 -425489 -424108
          -441391 -437592 -433328 -429184 -425371 -421944 -418939 -416454 -414655 -413707 -424973 -423133
          -420566 -417751 -414966 -412369 -410077 -408202 -406863 -406164 -414943 -414093 -412474 -410460
          -408323 -406257 -404407 -402893 -401816 -401257 -410188 -409752 -408553 -406911 -405086 -403276
          -401638 -400292 -399336 -398839 -557429 -563727 -564906 -561911 -556130 -549017 -541859 -535673
          -531179 -528825 -569741 -575648 -575452 -570627 -562984 -554224 -545745 -538588 -533462 -530799
          -597443 -602026 -598282 -589094 -577231 -564876 -553580 -544382 -537940 -534634 -647915 -648626
          -637108 -619400 -599915 -581416 -565473 -552970 -544419 -540088 -734045 -724858 -697482 -664427
          -632403 -604440 -581571 -564207 -552576 -546758 -862218 -837431 -783536 -726280 -675791 -634650
          -602153 -577912 -561918 -554013 -949542 -952732 -883221 -800509 -729215 -673087 -628003 -593934
          -571699 -560879 -934600 -952481 -938860 -861429 -785696 -722470 -661317 -612032 -580605 -565794
          -870660 -899902 -886392 -854548 -826899 -793272 -706108 -630207 -585799 -566215 -817621 -813431
          -800525 -799733 -833176 -931241 -754470 -637449 -581264 -558626 -785098 -742073 -715468 -706522
          -713942 -722593 -679445 -603305 -559507 -540730 -751877 -679426 -643455 -625875 -617852 -609183
          -587240 -553093 -528376 -516405 -670353 -615355 -583676 -565167 -553212 -542359 -528417 -511631
          -498391 -491469 -595767 -559104 -535565 -520102 -509024 -499582 -490088 -480622 -473186 -469188
          -533894 -513187 -497738 -486352 -477564 -470174 -463488 -457541 -453034 -450615 -489148 -478376
          -468935 -461122 -454639 -449107 -444304 -440284 -437341 -435782 -458791 -453414 -447827 -442633
          -437993 -433911 -430393 -427528 -425477 -424404 -439078 -436470 -433161 -429690 -426348 -423291
          -420632 -418480 -416956 -416165 -427265 -426009 -423937 -421481 -418944 -416532 -414399 -412668
          -411445 -410812 -421726 -421021 -419490 -417500 -415343 -413241 -411357 -409823 -408738 -408177
          -584159 -591975 -594201 -591667 -585764 -578072 -570098 -563095 -557964 -555267 -596907 -604479
          -605371 -600952 -593076 -583608 -574197 -566132 -560312 -557277 -625421 -632044 -629480 -620573
          -608242 -594906 -582431 -572140 -564886 -561151 -677154 -680511 -670259 -652618 -632300 -612381
          -594854 -580963 -571420 -566579 -766700 -759369 -732931 -699758 -666550 -636545 -611486 -592317
          -579463 -573037 -909887 -873438 -819592 -763339 -712040 -667989 -632337 -605754 -588313 -579723
          -953754 -970411 -912697 -838372 -768904 -707771 -657569 -620594 -596892 -585441 -971586 -954112
          -966418 -906041 -835521 -758538 -687399 -635440 -603400 -588396 -946210 -960550 -946544 -924707
          -902894 -825469 -719092 -646189 -604581 -586017 -908636 -886152 -865623 -873406 -939431 -918590
          -732994 -641840 -595261 -575390 -872606 -805956 -767312 -754204 -756114 -730758 -664895 -607142
          -571669 -555496 -810784 -727517 -681999 -658317 -643845 -623889 -593610 -562812 -540978 -530185
          -716899 -651512 -612736 -589417 -573282 -557875 -540656 -523756 -511049 -504438 -633044 -586769
          -558115 -539335 -525679 -513997 -502906 -492849 -485280 -481268 -560087 -534190 -515648 -502164
          -491786 -483127 -475522 -469061 -464308 -461792 -507918 -494738 -483597 -474521 -467054 -460744
          -455361 -450961 -447800 -446142 -473250 -466787 -460292 -454349 -449092 -444509 -440605 -437466
          -435245 -434090 -451116 -448007 -444202 -440276 -436534 -433138 -430207 -427854 -426199 -425343
          -438001 -436496 -434131 -431376 -428557 -425896 -423556 -421668 -420340 -419654 -431891 -431031
          -429288 -427065 -424680 -422369 -420309 -418637 -417460 -416852 -610616 -620470 -624384 -622888
          -617214 -609001 -600084 -592080 -586161 -583038 -623339 -633233 -635965 -632582 -624832 -614708
          -604234 -595089 -588435 -584955 -651372 -661278 -660984 -653078 -640608 -626303 -612513 -600979
          -592805 -588590 -700679 -710432 -703475 -686678 -665644 -644144 -624856 -609469 -598888 -593524
          -780701 -790155 -769237 -736365 -701240 -668519 -640995 -620018 -606029 -599062 -892840 -903486
          -860002 -803577 -748213 -699378 -660295 -631715 -613223 -604181 -971723 -987257 -951786 -882834
          -806543 -736391 -681658 -643142 -619021 -607470 -1.00274e+06 -963387 -1.00278e+06 -956124 -875979 -778564
          -702800 -651905 -621338 -607085 -999762 -1.01282e+06 -1.00089e+06 -960157 -945717 -816187 -716400 -653278
          -617182 -600834 -977588 -943922 -911357 -903380 -921988 -808136 -704285 -639544 -603171 -586869
          -921690 -848993 -799817 -774632 -756335 -707731 -650966 -606539 -578569 -565386 -836302 -755862
          -705413 -675122 -652321 -624613 -594015 -567386 -548973 -539802 -737980 -672176 -630783 -604092
          -584259 -565706 -547501 -531545 -520028 -514088 -648297 -602523 -572696 -552245 -536829 -523680
          -511872 -501858 -494593 -490797 -572770 -547033 -527929 -513603 -502335 -492919 -484850 -478236
          -473494 -471018 -518924 -505749 -494315 -484798 -476854 -470122 -464441 -459881 -456656 -454980