<?xml version="1.0"?>
<VTKFile type="UnstructuredGrid" version="0.1" byte_order="LittleEndian">
  <UnstructuredGrid>
    <Piece NumberOfCells="3800" NumberOfPoints="4620">
      <CellData Scalars="p (Pa)">
        <DataArray type="Float32" Name="p (Pa)" NumberOfComponents="1" format="ascii">
          -692060 -712943 -729425 -739374 -739207 -726374 -708722 -692667 -681166 -675267 -704190 -725420
          -741361 -750027 -748020 -732133 -712222 -694829 -682601 -676378 -729801 -751857 -765969 -770003
          -761607 -741146 -717999 -698461 -684953 -678132 -771761 -796466 -808170 -804935 -785850 -755821
          -726266 -702945 -687370 -679628 -833102 -864922 -874270 -860562 -824613 -776608 -735936 -706819
          -688383 -679439 -911391 -955477 -961036 -928992 -870010 -796421 -742448 -707143 -685834 -675720
          -985377 -1.02304e+06 -1.02475e+06 -966540 -879589 -797045 -738471 -700435 -677608 -666831 -1.01423e+06 -960670
          -1.01815e+06 -953799 -859270 -779554 -722992 -685613 -662928 -652181 -975564 -1.02034e+06 -975517 -894732
          -813390 -746287 -696885 -663119 -642208 -632212 -956868 -951068 -879426 -810856 -751393 -701359
          -662398 -634527 -616767 -608153 -932274 -848094 -780116 -728689 -687165 -652155 -623789 -602614
          -588690 -581813 -787701 -737892 -693425 -658411 -629934 -605868 -585975 -570695 -560393 -555222
          -679423 -651981 -624890 -601834 -582410 -565845 -552022 -541243 -533860 -530113 -604330 -588990
          -572521 -557443 -544205 -532738 -523103 -515532 -510303 -507633 -551411 -542906 -532904 -523079
          -514065 -506089 -499324 -493978 -490270 -488369 -513763 -509245 -503240 -496872 -490736 -485158
          -480360 -476543 -473883 -472517 -487258 -485058 -481518 -477397 -473196 -469247 -465787 -463006
          -461058 -460055 -469268 -468382 -466322 -463616 -460671 -457793 -455215 -453115 -451635 -450869
          -458106 -457919 -456689 -454807 -452612 -450382 -448337 -446651 -445453 -444831 -452761 -452875
          -452018 -450513 -448668 -446742 -444950 -443458 -442393 -441840 -720056 -747462 -773294 -794513
          -801811 -781956 -754774 -731813 -716288 -708582 -732382 -760044 -785798 -807286 -815632 -789189
          -758283 -733729 -717524 -709547 -758198 -785813 -808869 -823366 -820882 -793348 -761630 -736151
          -719236 -710876 -800384 -828893 -848940 -854659 -838663 -802590 -766435 -738632 -720446 -711468
          -861841 -894664 -913753 -910394 -878787 -820040 -772322 -739645 -719361 -709498 -938574 -979942
          -994262 -959979 -938482 -836702 -773451 -735438 -713140 -702497 -1.00385e+06 -1.03726e+06 -1.00517e+06 -964326
          -908724 -820197 -759545 -721691 -699236 -688545 -1.01327e+06 -953603 -1.01476e+06 -949408 -860694 -785505
          -733161 -698902 -678027 -668030 -958376 -957568 -946952 -872097 -798944 -740858 -698635 -669665
          -651510 -642725 -944923 -908278 -847854 -786546 -734242 -692134 -659964 -636897 -622035 -614749
          -834888 -798976 -751811 -709430 -673758 -644265 -620804 -603356 -591826 -586096 -724597 -702142
          -672666 -645123 -621166 -600788 -584102 -571359 -562767 -558446 -641888 -628893 -611126 -593442
          -577371 -563324 -551578 -542445 -536199 -533029 -582259 -574823 -564054 -552654 -541835 -532128
          -523875 -517375 -512886 -510594 -538864 -534755 -528221 -520848 -513543 -506812 -500996 -496366
          -493146 -491494 -507145 -505082 -501180 -496423 -491479 -486787 -482659 -479337 -477010 -475812
          -484278 -483469 -481216 -478157 -474790 -471480 -468506 -466082 -464371 -463486 -468451 -468388
          -467147 -465163 -462817 -460415 -458203 -456374 -455071 -454395 -458487 -458837 -458176 -456823
          -455087 -453234 -451486 -450018 -448965 -448415 -453674 -454207 -453809 -452748 -451297 -449702
          -448172 -446876 -445940 -445451 -746711 -782059 -820347 -859036 -881082 -846712 -804376 -772048
          -751581 -741766 -759415 -795156 -834562 -878415 -919104 -859451 -808886 -774189 -753010 -742954
          -785752 -820369 -854988 -885219 -894672 -853781 -809058 -775813 -754802 -744616 -828942 -861519
          -888845 -903017 -891437 -850938 -808810 -776755 -755909 -745482 -892777 -923780 -943083 -941444
          -909106 -855486 -808753 -775506 -754117 -743118 -971598 -1.00212e+06 -1.00516e+06 -986683 -931804 -856944
          -802484 -767192 -745145 -733641 -1.02087e+06 -1.04039e+06 -968078 -981047 -907740 -833038 -780513 -746298
          -724846 -713910 -1.00396e+06 -956872 -978566 -932848 -854240 -790236 -745255 -715018 -695834 -686236
          -939262 -945099 -912519 -849003 -787412 -738880 -703358 -678507 -662486 -654520 -853527 -847306
          -810140 -763824 -721500 -686927 -660302 -640939 -628224 -621885 -757248 -747863 -721353 -690998
          -662824 -638801 -619478 -604961 -595252 -590379 -674982 -667926 -651160 -631735 -613045 -596489
          -582721 -572112 -564904 -561257 -611545 -607120 -596813 -584381 -571930 -560534 -550809 -543172
          -537916 -535238 -563709 -561202 -554906 -546910 -538573 -530716 -523869 -518409 -514614 -512669
          -527665 -526464 -522679 -517535 -511938 -506509 -501683 -497784 -495050 -493643 -500635 -500312
          -498129 -494847 -491087 -487321 -483904 -481105 -479126 -478102 -480758 -481009 -479856 -477791
          -475256 -472618 -470167 -468129 -466674 -465917 -466786 -467398 -466891 -465602 -463864 -461966
          -460154 -458622 -457517 -456940 -457891 -458711 -458581 -457752 -456491 -455042 -453618 -452395
          -451504 -451036 -453566 -454480 -454523 -453908 -452870 -451632 -450392 -449315 -448526 -448109
          -769572 -812591 -862319 -915187 -943239 -902747 -849047 -809037 -784387 -772744 -782667 -826756
          -879132 -937689 -955597 -916983 -855150 -812200 -786679 -774731 -809328 -852525 -900482 -946832
          -959573 -912144 -855566 -815027 -790115 -778046 -852356 -891837 -928664 -952902 -945485 -900617
          -852900 -817231 -793819 -781479 -915552 -948768 -969686 -968966 -940139 -892589 -849274 -817499
          -795308 -781899 -987838 -1.01314e+06 -1.01659e+06 -986858 -935867 -880607 -837925 -808451 -787037 -772292
          -969179 -992415 -1.02178e+06 -972652 -905735 -848776 -807824 -779068 -758043 -745133 -981409 -955295
          -975326 -913366 -848396 -798115 -762020 -736145 -717861 -707684 -891058 -902688 -877581 -827026
          -778672 -740178 -711265 -690051 -675431 -667717 -792663 -797828 -776893 -744157 -711833 -684426
          -662708 -646361 -635184 -629424 -708591 -709540 -695686 -675167 -653990 -634999 -619257 -607118
          -598794 -594534 -641602 -641526 -632814 -619857 -605921 -592866 -581664 -572844 -566748 -563627
          -589536 -589524 -584171 -575916 -566680 -557719 -549819 -543490 -539074 -536806 -549330 -549619
          -546421 -541151 -535006 -528855 -523308 -518794 -515617 -513978 -518378 -518967 -517165 -513832
          -509747 -505525 -501634 -498422 -496140 -494957 -494774 -495605 -494720 -492663 -489961 -487062
          -484326 -482032 -480387 -479530 -477184 -478194 -477910 -476694 -474917 -472916 -470972 -469314
          -468111 -467481 -464693 -465821 -465922 -465248 -464073 -462661 -461242 -460007 -459101 -458623
          -456682 -457882 -458211 -457858 -457045 -455990 -454891 -453914 -453189 -452804 -452768 -454001
          -454436 -454234 -453590 -452703 -451755 -450901 -450262 -449921 -786347 -834717 -890720 -947765
          -972648 -934769 -879997 -837859 -811452 -798850 -799834 -850679 -911797 -975137 -972835 -951322
          -888716 -842945 -815275 -802140 -826634 -879029 -940202 -994696 -978335 -956101 -894683 -849890
          -822236 -808438 -867843 -918004 -968513 -1.00118e+06 -997442 -948884 -896482 -858440 -832538 -817243
          -925290 -969111 -1.00021e+06 -1.00638e+06 -981825 -936907 -897126 -868695 -845240 -825466 -987509 -1.01796e+06
          -1.02947e+06 -1.00371e+06 -961176 -918758 -888481 -868904 -848171 -820887 -971592 -957513 -1.01752e+06 -973068
          -919768 -878238 -849823 -827271 -803066 -782876 -956265 -961356 -956808 -902501 -852118 -814445
          -787106 -764702 -744735 -731656 -853475 -869621 -850259 -812174 -775581 -745996 -722931 -704344
          -689764 -681330 -756135 -764823 -752722 -729854 -705723 -684382 -666731 -652602 -642224 -636590
          -679356 -683902 -676794 -663021 -647353 -632508 -619675 -609352 -601973 -598083 -620081 -622906
          -618734 -610235 -600004 -589817 -580716 -573316 -568063 -565324 -574208 -576319 -573956 -568652
          -561937 -554985 -548607 -543354 -539616 -537673 -538584 -540377 -539167 -535883 -531479 -526753
          -522312 -518603 -515947 -514563 -510950 -512592 -512134 -510162 -507299 -504102 -501021 -498408
          -496521 -495534 -489724 -491290 -491329 -490223 -488395 -486244 -484109 -482266 -480921 -480213
          -473806 -475332 -475699 -475165 -474028 -472585 -471098 -469786 -468816 -468302 -462442 -463946
          -464523 -464357 -463670 -462691 -461632 -460672 -459952 -459568 -455124 -456616 -457318 -457371
          -456954 -456256 -455457 -454712 -454145 -453839 -451540 -453026 -453786 -453942 -453651 -453085
          -452409 -451766 -451271 -451003 -795807 -845864 -901293 -952345 -971459 -940453 -894136 -855641
          -830111 -817525 -809665 -863570 -925854 -982318 -998180 -960574 -905355 -862750 -835454 -821998
          -836860 -895495 -961054 -976737 -977444 -975992 -919206 -875008 -846237 -831116 -876858 -937076
          -996050 -982487 -1.0298e+06 -985067 -932194 -893431 -864700 -845467 -928897 -986534 -1.03183e+06 -1.03529e+06
          -1.02606e+06 -983508 -947358 -922749 -895905 -863583 -981815 -1.02717e+06 -1.05279e+06 -1.03722e+06 -1.00432e+06 -971663
          -955354 -951702 -937969 -869945 -986845 -959765 -1.02081e+06 -993047 -953111 -925516 -910984 -894473
          -855789 -818640 -930778 -953177 -943404 -904627 -867440 -840509 -820902 -799115 -771860 -752575
          -828315 -843964 -832210 -805530 -778359 -755732 -736978 -719149 -702500 -692206 -735131 -743680
          -736837 -720882 -702755 -685902 -671109 -658134 -647677 -641716 -662149 -667457 -663822 -654342
          -642541 -630711 -619957 -610813 -603929 -600185 -606406 -610237 -608463 -602779 -595140 -587057
          -579506 -573124 -568447 -565960 -563656 -566700 -566028 -562647 -557727 -552279 -547061 -542626
          -539398 -537695 -530634 -533193 -533190 -531252 -528122 -524489 -520917 -517843 -515600 -514417
          -505077 -507314 -507724 -506713 -504770 -502377 -499950 -497826 -496263 -495436 -485452 -487468
          -488138 -487729 -486578 -485028 -483390 -481924 -480832 -480250 -470722 -472588 -473420 -473404
          -472777 -471793 -470691 -469675 -468905 -468492 -460190 -461956 -462889 -463122 -462834 -462220
          -461470 -460750 -460193 -459892 -453399 -455103 -456095 -456476 -456389 -455997 -455460 -454920
          -454493 -454259 -450070 -451744 -452763 -453212 -453220 -452932 -452495 -452040 -451674 -451472
          -798145 -846384 -896282 -937837 -951997 -931394 -895961 -862918 -839318 -827242 -812128 -864451
          -920785 -968122 -980843 -951745 -908543 -871126 -845171 -831921 -839900 -898687 -962886 -1.0059e+06
          -1.01693e+06 -979901 -928316 -886141 -856718 -841119 -880932 -944726 -1.00387e+06 -968502 -1.04176e+06 -1.00207e+06
          -950502 -908376 -874840 -854488 -933416 -998304 -1.0434e+06 -970128 -1.04982e+06 -1.01729e+06 -977986 -942161
          -900493 -868963 -984738 -1.03789e+06 -1.0625e+06 -1.05507e+06 -1.04933e+06 -1.02231e+06 -1.0037e+06 -973697 -919445 -869320
          -988939 -962483 -990439 -1.01956e+06 -996931 -976935 -959661 -948989 -870184 -825394 -926699 -945070
          -939510 -916891 -889401 -868157 -850345 -823004 -782779 -758611 -822215 -832915 -824988 -805450
          -783893 -764732 -747102 -727397 -707326 -695330 -726901 -733044 -728127 -715864 -701124 -686642
          -673031 -660051 -648992 -642643 -653100 -657712 -655389 -648155 -638578 -628495 -618878 -610292
          -603591 -599891 -597878 -601767 -601053 -596920 -590849 -584088 -577516 -571771 -567455 -565128
          -556331 -559685 -559876 -557630 -553860 -549419 -544996 -541129 -538258 -536727 -524679 -527589
          -528271 -527181 -524909 -522045 -519100 -516494 -514557 -513526 -500394 -502948 -503891 -503518
          -502223 -500418 -498482 -496732 -495418 -494716 -481838 -484118 -485199 -485275 -484617 -483522
          -482268 -481100 -480209 -479729 -467945 -470024 -471176 -471534 -471292 -470666 -469870 -469092
          -468486 -468155 -458022 -459961 -461150 -461682 -461702 -461379 -460880 -460358 -459937 -459705
          -451625 -453476 -454682 -455315 -455490 -455347 -455026 -454658 -454350 -454176 -448489 -450298
          -451510 -452189 -452437 -452377 -452140 -451844 -451588 -451442 -794937 -839840 -883646 -918236
          -931647 -919607 -891540 -862031 -839736 -828064 -808864 -857391 -906163 -945193 -958300 -941109
          -905632 -870639 -845154 -832007 -837175 -892094 -948834 -992266 -1.00282e+06 -976022 -928754 -885446
          -854754 -838920 -880664 -942235 -1.0023e+06 -1.03107e+06 -1.04459e+06 -1.00671e+06 -952003 -903068 -866596 -846794
          -938887 -1.00189e+06 -1.04056e+06 -994545 -1.06437e+06 -1.02747e+06 -974160 -922594 -877756 -851322 -999738 -1.04458e+06
          -977472 -983622 -1.06478e+06 -1.03357e+06 -991703 -935407 -877032 -841965 -1.01548e+06 -1.0296e+06 -955612 -1.01988e+06
          -1.00558e+06 -959545 -954407 -902256 -838364 -804264 -951935 -960001 -941097 -925412 -900294 -872033
          -845182 -806053 -767828 -746687 -834359 -835583 -824099 -805720 -784797 -763779 -742875 -720135
          -700014 -688654 -727815 -729730 -723545 -711803 -697720 -683230 -669082 -655574 -644537 -638367
          -648923 -652062 -649542 -642904 -634081 -624548 -615235 -606835 -600322 -596755 -592302 -595813
          -595339 -591834 -586492 -580374 -574297 -568911 -564844 -562650 -550940 -554305 -554858 -553187
          -550054 -546200 -542260 -538757 -536131 -534724 -520013 -523055 -524092 -523490 -521744 -519372
          -516843 -514558 -512838 -511916 -496549 -499258 -500509 -500533 -499662 -498257 -496664 -495182
          -494051 -493442 -478736 -481161 -482496 -482892 -482574 -481801 -480827 -479879 -479140 -478737
          -465449 -467654 -469014 -469631 -469662 -469299 -468732 -468138 -467657 -467391 -455977 -458024
          -459386 -460132 -460380 -460276 -459970 -459603 -459289 -459112 -449877 -451824 -453180 -453997
          -454370 -454418 -454267 -454036 -453822 -453697 -446887 -448785 -450137 -450986 -451416 -451535
          -451456 -451288 -451121 -451021 -787864 -829441 -868676 -899753 -914795 -908518 -883268 -854558
          -832551 -821038 -801614 -846457 -889900 -925494 -943285 -935196 -900360 -863612 -837190 -823836
          -830122 -880934 -931642 -974007 -994243 -979604 -927632 -877562 -844074 -827724 -875577 -933174
          -989790 -1.03181e+06 -1.04299e+06 -1.00832e+06 -945924 -887812 -848786 -829503 -939984 -1.00019e+06 -1.05123e+06 -1.07297e+06
          -1.06853e+06 -1.01754e+06 -949271 -889515 -846932 -824910 -1.01007e+06 -1.05474e+06 -1.0711e+06 -1.07649e+06 -1.06037e+06 -1.00359e+06
          -938704 -878592 -832500 -808085 -994120 -987547 -958292 -962366 -963010 -946851 -896500 -840578
          -796378 -773539 -982530 -974310 -945425 -915702 -883820 -846758 -808694 -771050 -741308 -725540
          -851348 -842663 -823477 -799553 -774509 -749080 -724879 -702466 -684941 -675473 -729820 -728186
          -719176 -705530 -690035 -674220 -659222 -645848 -635605 -630061 -645354 -647404 -644109 -637046
          -627990 -618286 -608932 -600721 -594540 -591215 -587494 -590714 -590156 -586743 -581582 -575663
          -569796 -564638 -560786 -558724 -546359 -549687 -550364 -548931 -546086 -542522 -538847 -535573
          -533121 -531810 -516056 -519142 -520350 -520002 -518545 -516457 -514182 -512104 -510532 -509688
          -493253 -496030 -497446 -497700 -497084 -495930 -494560 -493258 -492253 -491709 -476021 -478517
          -479999 -480591 -480490 -479930 -479146 -478351 -477719 -477371 -463201 -465472 -466959 -467742
          -467957 -467774 -467369 -466905 -466516 -466297 -454075 -456183 -457655 -458544 -458949 -459001
          -458835 -458582 -458348 -458211 -448203 -450206 -451660 -452605 -453118 -453306 -453280 -453151
          -453010 -452922 -445326 -447277 -448721 -449690 -450253 -450502 -450542 -450470 -450372 -450307
          -778054 -816548 -852122 -880646 -896356 -892779 -868295 -839985 -818540 -807439 -791416 -833179
          -873003 -907022 -928359 -924501 -887881 -849048 -822220 -809036 -819372 -867368 -914981 -958526
          -987574 -965411 -918359 -861933 -826573 -810190 -864576 -920241 -975197 -1.02182e+06 -1.03764e+06 -968622
          -930093 -866201 -825905 -807303 -929558 -989310 -1.0415e+06 -1.06774e+06 -1.05126e+06 -994571 -918366 -855621
          -815820 -796796 -998977 -1.04458e+06 -1.07513e+06 -1.07363e+06 -1.02704e+06 -956363 -886410 -831207 -794291 -775983
          -961400 -956052 -973518 -999851 -953566 -893182 -837084 -791323 -759601 -743642 -962833 -965945
          -941193 -899045 -852755 -807980 -769130 -737205 -714487 -702806 -841056 -838488 -815392 -785218
          -755214 -727184 -702631 -682287 -667594 -659917 -720574 -721275 -711135 -695493 -678346 -661583
          -646437 -633763 -624553 -619705 -637961 -640768 -637297 -629737 -620235 -610284 -600950 -593033
          -587255 -584204 -581738 -585188 -584670 -581217 -576028 -570139 -564379 -559404 -555748 -553812
          -541836 -545236 -545993 -544650 -541909 -538468 -534932 -531803 -529478 -528241 -512447 -515564
          -516856 -516625 -515304 -513361 -511227 -509276 -507801 -507010 -490330 -493130 -494626 -494995
          -494515 -493500 -492260 -491069 -490146 -489645 -473616 -476136 -477691 -478388 -478411 -477978
          -477311 -476614 -476051 -475740 -461183 -463479 -465033 -465911 -466236 -466166 -465865 -465487
          -465160 -464972 -452334 -454468 -456000 -456975 -457480 -457633 -457561 -457385 -457206 -457098
          -446641 -448669 -450180 -451204 -451810 -452090 -452151 -452094 -452003 -451942 -443852 -445828
          -447327 -448372 -449022 -449361 -449483 -449480 -449431 -449391 -766316 -801492 -832779 -856687
          -868578 -863640 -842172 -817542 -798682 -788846 -778979 -817452 -852733 -881309 -896801 -890095
          -857837 -824380 -800897 -789246 -805479 -850699 -893998 -931315 -950611 -937918 -883109 -833577
          -802585 -788153 -848158 -903005 -955568 -994512 -980826 -965194 -895906 -834768 -798698 -782378
          -908823 -971766 -1.02196e+06 -1.00954e+06 -961790 -951853 -877583 -819899 -785186 -769107 -974487 -1.02797e+06
          -1.05755e+06 -1.0411e+06 -978584 -907058 -840385 -792059 -761770 -747260 -957243 -954231 -1.01355e+06 -974247
          -907443 -843644 -792012 -754107 -729431 -717313 -934107 -953052 -921816 -868614 -816883 -772150
          -736238 -709117 -690897 -681758 -807830 -816820 -796038 -764453 -733015 -704982 -681631 -663439
          -650917 -644534 -701481 -706729 -698150 -682428 -664846 -648006 -633280 -621459 -613169 -608896
          -627191 -631545 -628728 -621224 -611590 -601602 -592427 -584849 -579449 -576642 -575118 -579044
          -578760 -575350 -570136 -564254 -558579 -553757 -550268 -548438 -537347 -540869 -541702 -540389
          -537666 -534260 -530790 -527750 -525512 -524328 -509144 -512277 -513594 -513393 -512109 -510215
          -508143 -506258 -504840 -504082 -487750 -490540 -492051 -492454 -492020 -491060 -489881 -488746
          -487868 -487392 -471511 -474020 -475591 -476326 -476399 -476023 -475415 -474770 -474247 -473957
          -459402 -461693 -463267 -464184 -464561 -464548 -464304 -463975 -463683 -463515 -450775 -452908
          -454463 -455478 -456035 -456244 -456226 -456096 -455951 -455861 -445221 -447251 -448787 -449852
          -450508 -450844 -450957 -450944 -450886 -450841 -442500 -444480 -446004 -447089 -447790 -448183
          -448357 -448397 -448379 -448356 -753667 -785088 -811160 -828811 -835007 -828088 -810535 -790950
          -775698 -767618 -765391 -799809 -828745 -848585 -854838 -844443 -819940 -794740 -776353 -766977
          -789716 -830630 -865563 -889281 -893183 -873450 -834369 -799057 -775572 -764199 -828024 -879499
          -922248 -946198 -935703 -897365 -841485 -797152 -769705 -756860 -879865 -943800 -982924 -975597
          -949171 -889559 -827784 -783043 -755727 -742921 -932511 -994514 -960907 -958739 -923371 -853942
          -797208 -757820 -733478 -721886 -938179 -953907 -979107 -928981 -860955 -801080 -755982 -724378
          -704357 -694648 -871982 -902751 -882345 -833663 -783703 -741802 -709497 -686074 -670807 -663270
          -767946 -783418 -769912 -741810 -711749 -685034 -663318 -646936 -635967 -630466 -680803 -688953
          -683007 -668603 -651544 -635159 -621066 -610024 -602452 -598603 -616342 -621751 -619740 -612595
          -603062 -593172 -584203 -576930 -571834 -569214 -568930 -573153 -573048 -569669 -564414 -558514
          -552887 -548174 -544807 -543056 -533409 -536963 -537784 -536415 -533626 -530180 -526711 -523708
          -521519 -520368 -506357 -509447 -510711 -510449 -509114 -507189 -505112 -503242 -501847 -501105
          -485601 -488339 -489802 -490163 -489699 -488726 -487547 -486425 -485562 -485095 -469748 -472214
          -473753 -474465 -474528 -474153 -473554 -472923 -472414 -472132 -457889 -460149 -461704 -462613
          -462994 -462993 -462765 -462454 -462177 -462017 -449426 -451536 -453083 -454101 -454670 -454898
          -454902 -454792 -454663 -454581 -443973 -445987 -447521 -448595 -449269 -449627 -449765 -449774
          -449732 -449696 -441301 -443268 -444792 -445890 -446610 -447028 -447228 -447291 -447290 -447275
          -741454 -769055 -789819 -801418 -802752 -794571 -780080 -764705 -752686 -746252 -752427 -782506
          -804654 -816104 -815442 -803694 -784881 -766146 -752157 -744867 -774986 -810558 -835332 -845525
          -839089 -818974 -791540 -766857 -749649 -741020 -809649 -854661 -882001 -886499 -866156 -831532
          -793403 -762784 -742747 -733011 -854185 -912702 -936297 -922914 -879255 -827970 -783034 -750166
          -729394 -719427 -895852 -966073 -965196 -924407 -862487 -804317 -759730 -728679 -709270 -699957
          -898380 -952630 -943144 -880353 -816068 -764431 -726450 -700076 -683454 -675415 -828906 -866669
          -846746 -800521 -754333 -716416 -687653 -667128 -653928 -647464 -740863 -758569 -747728 -721708
          -693263 -668089 -647897 -632925 -623054 -618154 -666425 -675368 -670369 -656582 -639914 -623957
          -610404 -599956 -592896 -589343 -608807 -614340 -612397 -605195 -595571 -585674 -576821 -569748
          -564859 -562366 -564684 -568788 -568486 -564864 -559391 -553354 -547688 -543010 -539706 -538002
          -530704 -534093 -534691 -533085 -530089 -526496 -522950 -519925 -517742 -516603 -504395 -507341
          -508427 -507985 -506493 -504452 -502304 -500400 -498994 -498252 -484026 -486655 -487993 -488230
          -487660 -486607 -485377 -484227 -483352 -482882 -468396 -470785 -472241 -472875 -472871 -472447
          -471816 -471168 -470651 -470367 -456679 -458885 -460387 -461249 -461592 -461564 -461320 -461001
          -460721 -460560 -448311 -450383 -451896 -452887 -453436 -453652 -453650 -453540 -453412 -453331
          -442918 -444903 -446414 -447472 -448137 -448493 -448632 -448644 -448607 -448573 -440275 -442217
          -443724 -444811 -445528 -445947 -446151 -446220 -446224 -446213 -730883 -755133 -771297 -777963
          -775721 -766700 -754085 -741520 -731827 -726635 -741824 -768232 -784584 -789486 -784283 -771956
          -756330 -741578 -730586 -724813 -764494 -795921 -812128 -812189 -799826 -780359 -758908 -740285
          -727128 -720420 -799422 -840141 -854125 -843236 -817433 -786857 -757994 -735154 -719868 -712291
          -843161 -898299 -903435 -871928 -826924 -784112 -749231 -723767 -707402 -699440 -880540 -950194
          -933533 -876594 -816455 -767269 -730740 -705322 -689336 -681625 -881493 -951675 -914838 -843954
          -782699 -736597 -703470 -680679 -666377 -659474 -812241 -850540 -825484 -777398 -732451 -696866
          -670446 -651874 -640053 -634302 -730862 -747341 -734797 -707793 -679329 -654778 -635482 -621415
          -612260 -607751 -661772 -669425 -663063 -648243 -631029 -614969 -601610 -591489 -584740 -581372
          -606739 -611261 -608195 -600048 -589782 -579550 -570602 -563579 -558786 -556363 -563548 -566959
          -565844 -561492 -555468 -549082 -543237 -538499 -535194 -533503 -529812 -532755 -532814 -530697
          -527292 -523413 -519694 -516579 -514361 -513212 -503528 -506194 -506938 -506161 -504387 -502136
          -499850 -497865 -496418 -495659 -483143 -485597 -486722 -486746 -485991 -484795 -483465 -482253
          -481343 -480859 -467508 -469784 -471108 -471609 -471488 -470971 -470273 -469581 -469039 -468744
          -455799 -457931 -459350 -460130 -460400 -460314 -460027 -459680 -459383 -459215 -447447 -449468
          -450927 -451866 -452370 -452550 -452523 -452395 -452257 -452172 -442070 -444017 -445490 -446513
          -447149 -447482 -447605 -447608 -447564 -447529 -439436 -441346 -442822 -443882 -444577 -444980
          -445173 -445235 -445235 -445223 -722393 -743992 -756526 -759451 -754636 -744936 -733316 -722429
          -714222 -709860 -734104 -757898 -769767 -769737 -761323 -748413 -734335 -721797 -712626 -707830
          -759173 -788666 -798315 -790440 -773584 -753904 -735090 -719584 -708762 -703244 -799620 -841420
          -844828 -819946 -788019 -758109 -733103 -714137 -701539 -695281 -851385 -913750 -903002 -849059
          -797056 -755998 -725379 -703742 -689941 -683226 -889752 -959391 -929295 -854588 -789929 -742856
          -709870 -687500 -673567 -666867 -889252 -952007 -908679 -827317 -762825 -717641 -686594 -665762
          -652859 -646670 -819967 -852121 -820513 -766362 -718845 -683121 -657551 -640002 -628996 -623684
          -738864 -750014 -732085 -700982 -670381 -645167 -625986 -612317 -603553 -599274 -668972 -672446
          -662009 -644195 -625221 -608349 -594756 -584684 -578066 -574792 -611710 -613569 -607795 -597564
          -585949 -574968 -565677 -558544 -553747 -551342 -566353 -568259 -565507 -559800 -552821 -545838
          -539663 -534768 -531403 -529694 -531099 -533226 -532343 -529390 -525347 -521033 -517045 -513781
          -511490 -510313 -503897 -506120 -506329 -505048 -502865 -500316 -497830 -495724 -494212 -493425
          -482999 -485204 -486024 -485748 -484736 -483343 -481874 -480572 -479611 -479103 -467092 -469223
          -470369 -470690 -470410 -469766 -468975 -468220 -467641 -467328 -455248 -457290 -458602 -459272
          -459443 -459276 -458928 -458539 -458217 -458037 -446833 -448794 -450185 -451055 -451497 -451624
          -451557 -451401 -451246 -451153 -441429 -443332 -444757 -445734 -446327 -446625 -446721 -446704
          -446648 -446607 -438786 -440658 -442096 -443119 -443781 -444155 -444327 -444374 -444364 -444347
          -715521 -735025 -744866 -745204 -738705 -728543 -717458 -707547 -700244 -696400 -728113 -749929
          -758488 -755060 -744566 -731224 -717923 -706606 -698501 -694299 -756142 -784748 -789374 -775616
          -755620 -735536 -717925 -704036 -694525 -689709 -804529 -850748 -845062 -807027 -769498 -739055
          -715651 -698623 -687507 -682018 -871146 -951064 -928774 -841720 -779802 -737738 -708741 -689021
          -676653 -670673 -914253 -958806 -943723 -848397 -775181 -726960 -695185 -674343 -661576 -655481
          -919878 -953176 -923035 -824703 -752134 -705157 -674560 -654666 -642552 -636789 -853584 -869286
          -829022 -764305 -711335 -673884 -648220 -631086 -620516 -615458 -768199 -766237 -738075 -699793
          -665384 -638619 -619029 -605415 -596821 -592661 -691538 -685071 -666730 -643825 -622037 -603817
          -589687 -579469 -572858 -569614 -625392 -621686 -611049 -597490 -583882 -571822 -562005 -554649
          -549777 -547354 -573600 -572787 -567376 -559665 -551366 -543589 -536974 -531855 -528389 -526643
          -534616 -535459 -533189 -529085 -524212 -519352 -515030 -511578 -509189 -507972 -505432 -507036
          -506526 -504596 -501906 -498997 -496275 -494024 -492431 -491609 -483515 -485407 -485845 -485203
          -483886 -482262 -480632 -479226 -478204 -477668 -467092 -469054 -469989 -470101 -469637 -468846
          -467949 -467122 -466499 -466166 -454988 -456931 -458122 -458669 -458728 -458468 -458050 -457612
          -457259 -457065 -446444 -448343 -449660 -450453 -450824 -450892 -450778 -450589 -450413 -450309
          -440980 -442839 -444213 -445138 -445683 -445940 -446003 -445962 -445891 -445842 -438313 -440150
          -441547 -442528 -443151 -443493 -443638 -443665 -443644 -443620 -709550 -727236 -735262 -734199
          -726933 -716663 -705966 -696657 -689903 -686375 -721978 -741555 -747989 -743189 -732104 -718865
          -706147 -695578 -688112 -684267 -749759 -774878 -776494 -761840 -741883 -722415 -705767 -692875
          -684143 -679745 -798451 -838057 -826318 -790068 -754284 -725338 -703363 -687572 -677346 -672317
          -869444 -940426 -895861 -821560 -764070 -724275 -696958 -678537 -667058 -661528 -928152 -952712
          -933214 -835125 -762190 -715186 -684704 -664936 -652913 -647197 -954126 -951466 -948282 -822070
          -743566 -695988 -665927 -646694 -635088 -629594 -911620 -893942 -840219 -763304 -705838 -667235
          -641532 -624660 -614355 -609450 -823053 -792388 -747509 -700441 -662253 -634083 -614080 -600431
          -591912 -587812 -734994 -706262 -674921 -645366 -620436 -600819 -586117 -575701 -569044 -565799