<?xml version="1.0"?>
<VTKFile type="UnstructuredGrid" version="0.1" byte_order="LittleEndian">
  <UnstructuredGrid>
    <Piece NumberOfCells="1183" NumberOfPoints="1568">
      <CellData Scalars="p (Pa)">
        <DataArray type="Float32" Name="p (Pa)" NumberOfComponents="1" format="ascii">
          -6833.85 -12717.3 -17292.3 -18928.5 -7128.9 1194.7 5042.5 -15629.6 -23295.6 -25972.4 -22377.7 -9301.48
          -295.6 3865.52 -39272.5 -59242.7 -58936.5 -40580.4 -16624.7 -3779.41 1579.02 -92656.9 -192862 -194548
          -108513 -32084.4 -8672.94 -974.689 -214971 -701771 -753441 -137161 -36114.8 -9994.08 -1527.91 -828552
          -731905 -226255 -104563 -30154 -6823.53 1031.74 -707892 -196324 -69281.4 -35177.2 -10964.6 1410.95
          6607.39 -681809 -85911.8 -22501.4 -6296.07 3894.53 10169.4 13145.2 -67379.1 -15443.3 1417.09 8963.87
          13953.5 17251.3 18905.5 -1320.14 7966.98 13974.4 17791.5 20507.5 22357.3 23306.2 15671 18354.3
          20959.8 23051.5 24664.1 25789.5 26373 22374.8 23415.3 24769.4 26055.7 27123 27887.2 28286.8
          24966.8 25546.1 26464.2 27428.9 28268.3 28880.7 29202.9 -12404.4 -23438.6 -44385.5 -90828.5 -31634.1
          -10024.5 -2638.13 -21913.9 -33678.6 -52979.9 -74148.5 -30084.2 -10893.9 -3723.49 -48496.9 -69476.8 -124561
          -110436 -38140.6 -14224.4 -5922.49 -114754 -207076 -716521 -672636 -80580.4 -20120.3 -7968.34 -288341
          -702410 -716029 -146395 -41720.1 -14765.6 -5651.06 -717037 -703334 -151667 -52424.9 -19717.1 -5522.8
          417.095 -582709 -127573 -42842.9 -16866.6 -3364.52 4223.78 7772.54 -94300.1 -32815.1 -9301.65 1580
          8287.87 12485 14553.9 -13082 -1039.84 7406.49 12724.9 16379.5 18792.9 20014 9865.76 13373.2
          16950.7 19764 21880.7 23331.6 24077.2 19536.8 20850.1 22583.1 24188.7 25495.3 26420.8 26902.2
          24194.2 24793.8 25771.1 26795.2 27683.9 28331.7 28672.5 26153.4 26522.3 27219.2 28006 28716.3
          29243.7 29523.3 -18259.1 -38123.5 -115652 -694403 -98999.5 -26233.2 -11959.1 -29740.3 -48069.2 -104028
          -429589 -76590.9 -26082.1 -13425 -66297.8 -79631.1 -114696 -122934 -55720.5 -28021.7 -16397.2 -201625
          -197930 -206353 -148288 -62718.6 -34734.7 -19398.9 -729677 -706381 -198224 -80213.6 -44426.8 -26670.7
          -14398.9 -215548 -258219 -75239.2 -35258.5 -18757.5 -9120.96 -3135.37 -81753.6 -53042.5 -23580.6 -9250.98
          -1007.13 4264.98 7236.16 -18713.8 -9980.5 -555.766 5981.47 10473.2 13485.8 15097 4973.42 7986.85
          12015 15414.7 18009.7 19808.2 20753.1 16350.9 17579 19546.4 21452.6 23022.7 24142.7 24731
          22523.4 23087.7 24151.2 25297.8 26301.7 27037.5 27426.7 25874.2 26171 26823.5 27587.8 28290
          28817.1 29098.3 27366.1 27565.4 28055.6 28659.2 29230.1 29665 29898.5 -20972.2 -43988.8 -99852.6
          -208707 -80819.1 -34482.9 -20019.6 -33043.8 -64785.2 -183652 -709837 -125974 -42708.4 -24188.1 -64406.6
          -97644.1 -188666 -181457 -86531.5 -54391.3 -32445.9 -170949 -203007 -163150 -120889 -97064.3 -107395
          -46223.1 -716008 -701924 -162066 -87822.1 -102266 -90137.1 -36631 -124517 -126045 -57878.9 -36262.8
          -31026.8 -23248.6 -11181.3 -31876.6 -28881.6 -15813.5 -7464.81 -2616.64 1610.66 5224.25 -2098.15 -410.006
          4073.31 8103.49 11169.7 13538.6 15043.6 12067.7 12867.8 14948.2 17146.9 19016.4 20422.8 21218.3
          19950.3 20340.2 21445.8 22734.4 23900.3 24780.7 25261 24582.8 24784.8 25430 26237.6 27001
          27585.4 27902.2 27216.2 27332.6 27754.9 28312.5 28857.3 29280.6 29510.6 28418.3 28501.2 28831.6
          29282 29730.5 30082.4 30274.4 -21731.4 -50240.4 -132506 -167710 -78744.1 -40355.7 -25752.9 -36001.4
          -106294 -722026 -729492 -147587 -57929.5 -33472.5 -64196.1 -157878 -708767 -270263 -137025 -118166
          -53040.5 -119098 -225580 -285288 -182215 -220648 -695992 -114894 -226057 -705089 -217451 -179978
          -655413 -658388 -93024.5 -86698.6 -116227 -65969.1 -54618.1 -77522.6 -65887.3 -22133.7 -23937.2 -23598.7
          -15139.5 -9781.84 -7553.48 -2781.36 3335.57 2445.55 3149.31 5976.77 8806.37 11152.4 13394.5 15088.3
          15066 15328.4 16630.3 18214.8 19695.8 20921.2 21667.7 21939.9 22032.9 22727.8 23666.3 24588.4
          25326.6 25744.9 25939.6 25975.6 26388.5 26983 27585.9 28067.7 28335.3 28211 28227.4 28504.6
          28920.2 29351.3 29698 29890 29249.9 29259.9 29481.1 29820 30175.8 30463.6 30623.1 -18417.9
          -37894.4 -71382 -92452.5 -77416.5 -42675.1 -27033.1 -31595.6 -64829.5 -169092 -202437 -156590 -63291.5
          -34937 -65904.5 -145847 -784036 -309030 -194471 -87953.9 -45873.2 -137525 -263790 -711228 -322948
          -233631 -138485 -56596.5 -300780 -705261 -729404 -714226 -697857 -124754 -42304.5 -154295 -130614
          -112384 -100979 -81385.5 -30554.7 -12236.3 -34795.9 -25703.8 -18764.4 -13218.8 -6983.71 1249.87 5947.31
          2215.73 4034.73 6638.35 9325.19 12033.9 14637.3 16229.7 16262 16561 17657.4 19053.7 20467.7
          21676.7 22387.2 23066.5 23077.5 23610.4 24395.2 25212.6 25888.4 26273.4 26828.6 26793.3 27091.6
          27572.7 28087.5 28511.3 28749.9 28920 28883.8 29078.5 29408.8 29769.3 30067.4 30234.8 29868.7
          29836.3 29990.1 30257.3 30552 30796.7 30934.1 -14129.2 -27823.5 -47323.9 -72818.9 -108255 -43086.5
          -23091.2 -26909.8 -45557.1 -84590.8 -187890 -681847 -93244.7 -31653.4 -67537.5 -95299.8 -214854 -839204
          -719922 -103150 -35327.8 -207486 -226583 -377826 -362309 -168380 -59774.9 -29035.5 -710779 -703303
          -707541 -703527 -127686 -38792.7 -17380.2 -665029 -151922 -108071 -83814.5 -31890.2 -10392.3 -1964.13
          -63080.5 -27862.3 -16686.4 -8949.12 294.837 6723.39 9961.52 1368.92 4810.63 7982.61 11032.7 14150.1
          16637.8 18009.5 17107.9 17489.2 18606.2 20022.1 21474.3 22660.3 23326.7 23844.4 23822.5 24304.5
          25045.7 25834.7 26485 26851.2 27440.2 27371.3 27619.6 28052.3 28529.2 28926.4 29150.3 29415
          29352.3 29505.3 29792.5 30117 30389.7 30543.9 30306.6 30251.6 30369 30597 30857.8 31078.3
          31203.3 -9670.17 -20520.2 -32309.5 -43330.8 -40709.1 -20978.9 -11315.6 -21190.5 -36820.5 -61079 -113614
          -96336.5 -32650.5 -14813.5 -59517.8 -89440.4 -187838 -700309 -136993 -37652.5 -16016.6 -219515 -271872
          -726414 -709056 -101610 -27983.5 -11812.1 -704846 -701076 -219713 -132800 -41867.8 -13435.5 -3856.26
          -129953 -111710 -54844.4 -31308.3 -10475.9 663.718 5505.28 -22321.7 -18193.1 -8247.52 -441.259 6543.8
          11292.2 13650.9 6896.68 7594.02 10360.4 13476.3 16437.6 18666.4 19848.3 18601 18614 19634.6
          21072.1 22528.2 23678.6 24307.5 24532 24437 24887.4 25628.4 26420.5 27065.2 27423.5 27874.6
          27782.6 28012.5 28435.5 28906.8 29298.8 29518.9 29744.4 29669.3 29807 30080.9 30395 30660.3
          30810.5 30593.8 30529 30632 30845.4 31094.2 31306.1 31426.6 -5768.67 -15070.2 -20167.7 -20014.9
          -13903.2 -5449.14 -736.94 -15710.9 -32590.6 -40069.9 -38632.8 -23978.4 -8861.58 -2105.68 -44867.8 -114133
          -130332 -102917 -35599.1 -11150.5 -2604.4 -130286 -715068 -703397 -130805 -33286.3 -8390.81 -371.013
          -155110 -700104 -154525 -50438.4 -15515.5 -1086.03 4526.16 -49629.6 -93111.1 -38661.7 -14180.4 -345.149
          7265.33 10660.6 -8327.7 -12275.8 -3415.12 4575.87 10650.4 14604.7 16533.8 10125.2 9544.5 12086.3
          15327.9 18237.8 20333.9 21416.2 19585.1 19373.5 20379.2 21899.7 23404.1 24557.7 25174.9 24946.5
          24811.6 25278.3 26066.3 26897.4 27561.5 27925.3 28115.5 28017.3 28259.5 28705.7 29198.5 29604
          29829.9 29922.8 29846.8 29990.2 30274.2 30598.4 30870.8 31024.3 30749.6 30684.5 30789.7 31007.6
          31261.2 31476.9 31599.3 -3208.76 -11699.8 -11876.6 -7414.78 -1436.83 3802.83 6644.03 -13057.1 -30979
          -25494.3 -15244.8 -5098.83 2335.06 5967.84 -37986.7 -103342 -63528.3 -31525.2 -9997.02 991.174 5618.01
          -73338.6 -227267 -138070 -42881.6 -10963.2 1822 6752.9 -112122 -697572 -114679 -29753.7 -4803.93
          5629.99 9777.03 -42379.9 -89216.5 -32682.9 -7908.04 4640.65 11203.8 14068.9 -7077.62 -11531.1 -1831.85
          6882.65 13007.7 16785.2 18573.9 10221 9631.76 12609.5 16279 19382.4 21517.1 22589.1 19533.9
          19367.9 20591.5 22339.2 23987.3 25205.8 25843.4 24925.6 24822.9 25394.6 26298.3 27215.2 27928.1
          28312.2 28130.3 28050.3 28342.6 28846.9 29387.3 29823.2 30063.2 29956.7 29890.9 30059.4 30373.7
          30724.4 31015 31177.6 30790.8 30732.5 30853.1 31090.1 31361.2 31589.5 31718.3 -1867.6 -11289.7
          -7177.15 -670.893 5091.48 9232.96 11357.3 -15563.1 -56948.9 -22478.3 -6459.51 2738.73 8262.72 10878.6
          -66853.9 -564703 -78127.3 -18599.8 -938.413 7098.78 10481 -114269 -709157 -128770 -29579.4 -3191.12
          7037.41 10978.4 -158911 -702268 -137955 -29648.7 -1137.62 9122.97 12923.3 -93889.2 -104439 -38612.9
          -7738.9 6579.2 13369.8 16175.3 -20015.7 -17461.6 -3834.82 7061.97 14045 18058.5 19883.2 6156.28
          7196.39 11720.3 16352.5 19921.6 22238.3 23364.9 18107.8 18376.8 20186.7 22369.6 24268.9 25608.2
          26291.3 24393.9 24422.9 25219.4 26319.4 27367.6 28153.5 28568.6 27921.4 27887.9 28271.1 28865.9
          29474.3 29952.3 30211.8 29867.9 29822 30031.6 30390.7 30778.6 31094.2 31268.9 30742.5 30695.9
          30840.7 31105.7 31401.5 31647.2 31784.9 1549.15 -4349.96 -1791.24 3700.52 8762.42 12325.7 14126.1
          -7507.39 -21496.8 -11211.1 -587.141 6896.43 11511.2 13698.8 -34419.8 -102959 -38446.6 -9841.2 3637.11
          10356 13228.2 -122747 -697387 -124498 -26052.9 124.548 9752.08 13354.9 -696937 -700141 -665188
          -58993.4 -1481.82 10796.8 14685.1 -693485 -159794 -75601.4 -12663.7 6837.37 14451.8 17367.1 -90189.9
          -35470.3 -10070 5843.39 14295.9 18709.4 20629.5 -6897.33 1243.58 9550.18 15837.5 20051.5 22604
          23805.3 14847.3 16360.2 19295.4 22116.8 24327.3 25805.3 26539.8 23396.9 23695.3 24841.4 26194.4
          27392.2 28255.8 28703.1 27559.5 27598.4 28101.3 28800.9 29481.8 30002.4 30281.1 29707.6 29686.8
          29944 30351.2 30776.8 31116.7 31303.2 30644.7 30611 30781.5 31075.2 31395.4 31657.8 31803.9
          3874.22 -313.232 1356.91 5940.54 10476.4 13736.4 15391.5 -2478.23 -9397.06 -4999.68 2561.76 8871.18
          12991.7 14981.5 -18411.8 -36039.3 -20326.2 -4314.43 6066.81 11891.6 14485.2 -54672.1 -118346 -51189.2
          -14268.3 3164.96 11225.1 14478.9 -161478 -198147 -104716 -22771.8 2604.07 12065 15567 -705524
          -147498 -43479.6 -7218 8172.17 15139.4 17941.3 -685919 -78575.2 -12565.3 5921.96 14573.4 19027.5
          20962.2 -47778.4 -8252.83 7558.31 15442.4 20062.9 22741.7 23982.5 9700.36 13979.9 18440.6 21853.2
          24290.3 25858 26624.6 22304.1 22979.5 24486 26047.7 27352.1 28266.7 28734.6 27219 27331.5
          27935.9 28713.3 29443.6 29991.7 30282.4 29557.3 29556.8 29849 30289.2 30739.3 31094.6 31288.3
          30546.8 30522.1 30710.1 31022.4 31357.9 31630.7 31781.9
        </DataArray>
        <DataArray type="Float32" Name="saturation" NumberOfComponents="1" format="ascii">
          0.270526 0.267858 0.265932 0.265272 0.270387 0.27457 0.276699 0.266618 0.26358 0.262589 0.263927 0.269379
          0.27378 0.276033 0.258123 0.252562 0.252639 0.25772 0.266206 0.272006 0.274776 0.245386 0.232209 0.23205
          0.242638 0.260447 0.269667 0.273427 0.230238 0.211277 0.210349 0.238434 0.25912 0.269065 0.273141 0.20915
          0.210724 0.229314 0.243291 0.261106 0.270531 0.274483 0.211162 0.231885 0.250169 0.259423 0.268629 0.274686
          0.277605 0.211661 0.246667 0.26388 0.270782 0.276049 0.279759 0.281666 0.250605 0.266696 0.274689 0.279015
          0.282203 0.284476 0.285671 0.273248 0.278411 0.282217 0.284862 0.286867 0.288295 0.28905 0.283369 0.285269
          0.287211 0.288846 0.290155 0.291095 0.291592 0.288309 0.289137 0.290242 0.291321 0.29224 0.29291 0.293266
          0.290406 0.29089 0.29167 0.292507 0.293249 0.2938 0.294092 0.267994 0.263526 0.256583 0.245726 0.2606
          0.269051 0.272576 0.264105 0.259915 0.254181 0.249089 0.26113 0.268661 0.272033 0.255406 0.250125 0.240177
          0.242327 0.258476 0.26721 0.27096 0.241646 0.230915 0.211002 0.211843 0.247734 0.264801 0.269994 0.225022
          0.211265 0.211011 0.237248 0.257374 0.266981 0.271091 0.210993 0.211247 0.236602 0.254329 0.264959 0.271153
          0.274155 0.213831 0.239747 0.257038 0.266106 0.272212 0.276234 0.278295 0.245085 0.260202 0.269379 0.274777
          0.278605 0.281234 0.282606 0.2677 0.273393 0.278076 0.281391 0.283861 0.285589 0.286494 0.27957 0.281817
          0.284263 0.286307 0.287922 0.28907 0.289673 0.286138 0.287127 0.288474 0.289764 0.290847 0.291633 0.292048
          0.289769 0.290262 0.29108 0.291955 0.292731 0.293306 0.293612 0.291404 0.29172 0.292323 0.293016 0.293651
          0.294129 0.294385 0.265541 0.258481 0.241507 0.211417 0.244245 0.262494 0.268189 0.26125 0.255526 0.243381
          0.218404 0.248565 0.262549 0.267552 0.250856 0.247929 0.241655 0.240414 0.25346 0.261853 0.266299 0.2314
          0.231737 0.230979 0.237014 0.251707 0.259567 0.265085 0.210764 0.21119 0.23171 0.247809 0.25657 0.262336
          0.267136 0.230189 0.226956 0.248854 0.259397 0.265341 0.269462 0.272326 0.247495 0.254164 0.263473 0.269402
          0.27341 0.276258 0.277975 0.265358 0.269071 0.273644 0.277239 0.279949 0.281891 0.282975 0.276659 0.278423
          0.28093 0.283192 0.285019 0.28634 0.287053 0.283841 0.28471 0.286145 0.28759 0.288823 0.289727 0.29021
          0.288426 0.288875 0.289734 0.290682 0.291531 0.292165 0.292505 0.291167 0.291419 0.29198 0.292646 0.293269
          0.293742 0.293997 0.292452 0.292627 0.29306 0.2936 0.294117 0.294516 0.294731 0.264468 0.256699 0.244096
          0.230773 0.247685 0.25965 0.26484 0.260125 0.251212 0.233102 0.211126 0.239974 0.257078 0.263246 0.251302
          0.244484 0.23261 0.233322 0.246546 0.253807 0.260326 0.234413 0.231276 0.235268 0.240715 0.244587 0.242821
          0.25605 0.211012 0.211274 0.23539 0.246297 0.24368 0.245856 0.258954 0.240184 0.239964 0.252906 0.259072
          0.260806 0.263597 0.268533 0.260518 0.261549 0.266541 0.270229 0.272587 0.274794 0.276803 0.27285 0.27372
          0.27615 0.278493 0.280389 0.281926 0.282939 0.280964 0.281484 0.282874 0.284402 0.285753 0.286803 0.287409
          0.286447 0.28674 0.287585 0.288593 0.289529 0.290251 0.290651 0.290088 0.290255 0.290793 0.291476 0.292133
          0.292644 0.292924 0.292321 0.292422 0.292793 0.293289 0.293778 0.294163 0.294374 0.293383 0.293458 0.293755
          0.294164 0.294576 0.294902 0.295081 0.264175 0.254923 0.239061 0.234763 0.248113 0.257789 0.262669 0.259156
          0.243002 0.210902 0.210767 0.2371 0.252893 0.259983 0.251352 0.235869 0.211145 0.226152 0.238452 0.241123
          0.254165 0.240983 0.229368 0.225207 0.233246 0.229767 0.211386 0.241625 0.22933 0.211214 0.23003 0.233472
          0.212194 0.212133 0.245318 0.246514 0.241419 0.250933 0.253747 0.248368 0.250953 0.264021 0.263339 0.263466
          0.266823 0.269161 0.270187 0.272504 0.275738 0.275247 0.275634 0.277237 0.278919 0.280378 0.281831 0.282969
          0.282954 0.283133 0.284037 0.285168 0.286256 0.287182 0.287756 0.287968 0.288041 0.288588 0.28934 0.290093
          0.290706 0.291058 0.291223 0.291253 0.291605 0.292118 0.292645 0.29307 0.293309 0.293198 0.293213 0.293461
          0.293835 0.294228 0.294546 0.294723 0.294135 0.294144 0.294347 0.294659 0.294989 0.295258 0.295408 0.265477
          0.258553 0.249697 0.245424 0.248391 0.257088 0.262205 0.260613 0.251202 0.234613 0.231327 0.236018 0.251569
          0.259501 0.250949 0.237317 0.209841 0.223827 0.232058 0.246272 0.256151 0.238386 0.226579 0.2111 0.223076
          0.228738 0.23826 0.253234 0.224291 0.211211 0.210769 0.211044 0.211351 0.24015 0.257199 0.236288 0.239321
          0.242018 0.2439 0.247569 0.260968 0.268068 0.259547 0.262687 0.265338 0.267641 0.270455 0.274599 0.27722
          0.275122 0.276128 0.277623 0.279236 0.280942 0.282663 0.283756 0.283779 0.283988 0.284766 0.28578 0.286836
          0.287763 0.288319 0.288858 0.288866 0.289295 0.289934 0.290611 0.291179 0.291507 0.291984 0.291954 0.292212
          0.292633 0.293088 0.293467 0.293681 0.293835 0.293802 0.293979 0.29428 0.294612 0.294888 0.295044 0.294704
          0.294674 0.294816 0.295065 0.295341 0.295571 0.295701 0.267251 0.261923 0.255736 0.24938 0.24268 0.256966
          0.263657 0.26225 0.256242 0.246927 0.232685 0.21166 0.245278 0.260593 0.250569 0.244903 0.230247 0.208992
          0.21094 0.243529 0.259374 0.23088 0.229288 0.220463 0.221151 0.23469 0.252429 0.261495 0.211108 0.211248
          0.211168 0.211244 0.239731 0.258272 0.265896 0.211997 0.236572 0.24271 0.247081 0.260513 0.268885 0.272918
          0.25162 0.261909 0.26618 0.26954 0.274091 0.277673 0.27963 0.274663 0.276567 0.278421 0.280302 0.282334
          0.284042 0.285019 0.284374 0.284645 0.285452 0.2865 0.287607 0.288535 0.289066 0.289484 0.289466 0.289859
          0.290471 0.291134 0.291688 0.292004 0.292517 0.292456 0.292674 0.293057 0.293483 0.293841 0.294044 0.294286
          0.294229 0.294369 0.294633 0.294934 0.295189 0.295333 0.295111 0.295059 0.295169 0.295383 0.295629 0.295838
          0.295957 0.269211 0.264644 0.260371 0.256893 0.257681 0.264466 0.268473 0.264383 0.258894 0.252107 0.241824
          0.244717 0.260257 0.26696 0.252493 0.245988 0.232691 0.211304 0.238457 0.25863 0.266457 0.229859 0.226048
          0.210823 0.21114 0.243792 0.261866 0.268254 0.211219 0.21129 0.229843 0.239021 0.25733 0.267548 0.271968
          0.239413 0.242124 0.253688 0.26071 0.268848 0.274286 0.276964 0.263949 0.265567 0.269864 0.273704 0.277567
          0.280467 0.282001 0.277775 0.278188 0.279879 0.281885 0.283902 0.285496 0.28637 0.285448 0.285458 0.286211
          0.287297 0.28843 0.28935 0.289862 0.290046 0.289968 0.29034 0.290959 0.291633 0.292189 0.292502 0.292899
          0.292818 0.293021 0.293399 0.293823 0.29418 0.294381 0.294589 0.294519 0.294647 0.2949 0.295193 0.295443
          0.295584 0.29538 0.295319 0.295416 0.295617 0.295853 0.296056 0.296171 0.271034 0.266852 0.264782 0.264842
          0.267347 0.271188 0.27355 0.266584 0.260277 0.257877 0.258322 0.263324 0.269581 0.272846 0.256442 0.241743
          0.23936 0.243569 0.259286 0.268547 0.272593 0.239367 0.211029 0.211246 0.239295 0.260045 0.269798 0.273741
          0.236192 0.211308 0.236261 0.254868 0.266666 0.273369 0.276405 0.255091 0.245302 0.258313 0.267229 0.273754
          0.277993 0.280067 0.269827 0.26805 0.272187 0.276433 0.280061 0.28264 0.283969 0.279732 0.279372 0.280976
          0.283133 0.285184 0.286735 0.287562 0.286174 0.286017 0.28677 0.287937 0.289128 0.290067 0.290579 0.290389
          0.290277 0.290665 0.29133 0.292044 0.292623 0.292944 0.293113 0.293026 0.293241 0.293642 0.294088 0.294459
          0.294668 0.294754 0.294683 0.294816 0.295081 0.295384 0.295641 0.295787 0.295527 0.295465 0.295565 0.295771
          0.296013 0.296219 0.296337 0.27229 0.268303 0.268226 0.270252 0.273188 0.275998 0.277626 0.267711 0.260823
          0.262763 0.266779 0.271358 0.275187 0.277232 0.258524 0.243496 0.251512 0.260637 0.269063 0.274461 0.277029
          0.249266 0.229234 0.238314 0.257026 0.26863 0.274908 0.27769 0.242059 0.211356 0.241658 0.261245 0.271502
          0.277036 0.279515 0.257176 0.24603 0.260246 0.270022 0.27647 0.280411 0.28228 0.270411 0.268378 0.272986
          0.277766 0.281576 0.284146 0.285429 0.279791 0.279425 0.281316 0.283791 0.286023 0.28764 0.288478 0.286136
          0.286012 0.28693 0.288281 0.2896 0.290605 0.291141 0.290372 0.290286 0.290763 0.291528 0.29232 0.292947
          0.293288 0.293126 0.293055 0.293315 0.293769 0.294261 0.294661 0.294884 0.294785 0.294724 0.29488 0.295173
          0.295503 0.295778 0.295933 0.295566 0.295511 0.295625 0.29585 0.296108 0.296328 0.296452 0.272968 0.268485
          0.270364 0.273584 0.276727 0.27918 0.280508 0.266646 0.253143 0.263889 0.270704 0.275408 0.278589 0.280205
          0.250727 0.21428 0.248241 0.265404 0.273445 0.277894 0.279954 0.241722 0.211138 0.239578 0.261306 0.272299
          0.277858 0.280268 0.235749 0.211267 0.238329 0.261281 0.273342 0.279112 0.281521 0.24516 0.243312 0.258328
          0.270101 0.277588 0.281815 0.283719 0.264842 0.265863 0.271978 0.277872 0.282264 0.285054 0.286396 0.277341
          0.277952 0.28074 0.283842 0.286425 0.288202 0.289097 0.28509 0.285285 0.286624 0.288305 0.28983 0.290942
          0.291522 0.289932 0.289956 0.290616 0.291546 0.292453 0.293147 0.293518 0.292941 0.292911 0.293252 0.293786
          0.29434 0.294781 0.295022 0.294703 0.29466 0.294855 0.295189 0.295554 0.295853 0.29602 0.29552 0.295476
          0.295613 0.295864 0.296147 0.296383 0.296516 0.27476 0.271724 0.273007 0.275941 0.278892 0.281131 0.282318
          0.270209 0.264265 0.26852 0.273628 0.277775 0.280607 0.282033 0.25967 0.243562 0.25838 0.269134 0.275906
          0.279876 0.281721 0.240441 0.21136 0.240187 0.26256 0.274001 0.2795 0.281805 0.211368 0.211307 0.211994
          0.252625 0.273165 0.280153 0.282695 0.211434 0.235648 0.248776 0.267881 0.27774 0.282537 0.284558 0.245846
          0.259328 0.26903 0.277159 0.282432 0.285528 0.286959 0.270496 0.274596 0.279375 0.283484 0.286522 0.28849
          0.289452 0.282805 0.283848 0.285959 0.288107 0.289878 0.291109 0.291735 0.289122 0.289363 0.290302 0.291439
          0.292475 0.293238 0.293639 0.292621 0.292656 0.2931 0.293727 0.294347 0.294828 0.295087 0.294555 0.294536
          0.294773 0.295153 0.295553 0.295875 0.296053 0.295428 0.295396 0.295557 0.295835 0.296141 0.296393 0.296534
          0.276038 0.273771 0.274657 0.277216 0.279951 0.282058 0.283177 0.272657 0.269336 0.271406 0.275311 0.278958
          0.281566 0.282896 0.265479 0.259144 0.26472 0.271741 0.277289 0.280851 0.28256 0.253733 0.241096 0.254663
          0.267191 0.275643 0.280424 0.282555 0.235456 0.231717 0.243265 0.263778 0.275334 0.280962 0.283297 0.211206
          0.237111 0.256849 0.270345 0.278535 0.283004 0.28497 0.211581 0.248148 0.267924 0.277205 0.282619 0.285761
          0.287213 0.255608 0.269861 0.278167 0.283211 0.286531 0.288599 0.289596 0.279468 0.28222 0.285332 0.287901
          0.289848 0.291153 0.291808 0.288254 0.288788 0.290008 0.291314 0.292439 0.293248 0.293667 0.292323 0.292421
          0.292953 0.293648 0.294312 0.294818 0.295088 0.294416 0.294416 0.294685 0.295095 0.295517 0.295854 0.296039
          0.295336 0.295313 0.29549 0.295785 0.296105 0.296367 0.296513
        </DataArray>
        <DataArray type="Float32" Name="process rank" NumberOfComponents="1" format="ascii">
          3 3 3 3 3 3 3 3 3 3 3 3
          3 3 3 3 3 3 3 3 3 3 3 3
          3 3 3 3 3 3 3 3 3 3 3 3
          3 3 3 3 3 3 3 3 3 3 3 3
          3 3 3 3 3 3 3 3 3 3 3 3
          3 3 3 3 3 3 3 3 3 3 3 3
          3 3 3 3 3 3 3 3 3 3 3 3
          3 3 3 3 3 3 3 3 3 3 3 3
          3 3 3 3 3 3 3 3 3 3 3 3
          3 3 3 3 3 3 3 3 3 3 3 3
          3 3 3 3 3 3 3 3 3 3 3 3
          3 3 3 3 3 3 3 3 3 3 3 3
          3 3 3 3 3 3 3 3 3 3 3 3
          3 3 3 3 3 3 3 3 3 3 3 3
          3 3 3 3 3 3 3 3 3 3 3 3
          3 3 3 3 3 3 3 3 3 3 3 3
          3 3 3 3 3 3 3 3 3 3 3 3
          3 3 3 3 3 3 3 3 3 3 3 3
          3 3 3 3 3 3 3 3 3 3 3 3
          3 3 3 3 3 3 3 3 3 3 3 3
          3 3 3 3 3 3 3 3 3 3 3 3
          3 3 3 3 3 3 3 3 3 3 3 3
          3 3 3 3 3 3 3 3 3 3 3 3
          3 3 3 3 3 3 3 3 3 3 3 3
          3 3 3 3 3 3 3 3 3 3 3 3
          3 3 3 3 3 3 3 3 3 3 3 3
          3 3 3 3 3 3 3 3 3 3 3 3
          3 3 3 3 3 3 3 3 3 3 3 3
          3 3 3 3 3 3 3 3 3 3 3 3
          3 3 3 3 3 3 3 3 3 3 3 3
          3 3 3 3 3 3 3 3 3 3 3 3
          3 3 3 3 3 3 3 3 3 3 3 3
          3 3 3 3 3 3 3 3 3 3 3 3
          3 3 3 3 3 3 3 3 3 3 3 3
          3 3 3 3 3 3 3 3 3 3 3 3
          3 3 3 3 3 3 3 3 3 3 3 3
          3 3 3 3 3 3 3 3 3 3 3 3
          3 3 3 3 3 3 3 3 3 3 3 3
          3 3 3 3 3 3 3 3 3 3 3 3
          3 3 3 3 3 3 3 3 3 3 3 3
          3 3 3 3 3 3 3 3 3 3 3 3
          3 3 3 3 3 3 3 3 3 3 3 3
          3 3 3 3 3 3 3 3 3 3 3 3
          3 3 3 3 3 3 3 3 3 3 3 3
          3 3 3 3 3 3 3 3 3 3 3 3
          3 3 3 3 3 3 3 3 3 3 3 3
          3 3 3 3 3 3 3 3 3 3 3 3
          3 3 3 3 3 3 3 3 3 3 3 3
          3 3 3 3 3 3 3 3 3 3 3 3
          3 3 3 3 3 3 3 3 3 3 3 3
          3 3 3 3 3 3 3 3 3 3 3 3
          3 3 3 3 3 3 3 3 3 3 3 3
          3 3 3 3 3 3 3 3 3 3 3 3
          3 3 3 3 3 3 3 3 3 3 3 3
          3 3 3 3 3 3 3 3 3 3 3 3
          3 3 3 3 3 3 3 3 3 3 3 3
          3 3 3 3 3 3 3 3 3 3 3 3
          3 3 3 3 3 3 3 3 3 3 3 3
          3 3 3 3 3 3 3 3 3 3 3 3
          3 3 3 3 3 3 3 3 3 3 3 3
          3 3 3 3 3 3 3 3 3 3 3 3
          3 3 3 3 3 3 3 3 3 3 3 3
          3 3 3 3 3 3 3 3 3 3 3 3
          3 3 3 3 3 3 3 3 3 3 3 3
          3 3 3 3 3 3 3 3 3 3 3 3
          3 3 3 3 3 3 3 3 3 3 3 3
          3 3 3 3 3 3 3 3 3 3 3 3
          3 3 3 3 3 3 3 3 3 3 3 3
          3 3 3 3 3 3 3 3 3 3 3 3
          3 3 3 3 3 3 3 3 3 3 3 3
          3 3 3 3 3 3 3 3 3 3 3 3
          3 3 3 3 3 3 3 3 3 3 3 3
          3 3 3 3 3 3 3 3 3 3 3 3
          3 3 3 3 3 3 3 3 3 3 3 3
          3 3 3 3 3 3 3 3 3 3 3 3
          3 3 3 3 3 3 3 3 3 3 3 3
          3 3 3 3 3 3 3 3 3 3 3 3
          3 3 3 3 3 3 3 3 3 3 3 3
          3 3 3 3 3 3 3 3 3 3 3 3
          3 3 3 3 3 3 3 3 3 3 3 3
          3 3 3 3 3 3 3 3 3 3 3 3
          3 3 3 3 3 3 3 3 3 3 3 3
          3 3 3 3 3 3 3 3 3 3 3 3
          3 3 3 3 3 3 3 3 3 3 3 3
          3 3 3 3 3 3 3 3 3 3 3 3
          3 3 3 3 3 3 3 3 3 3 3 3
          3 3 3 3 3 3 3 3 3 3 3 3
          3 3 3 3 3 3 3 3 3 3 3 3
          3 3 3 3 3 3 3 3 3 3 3 3
          3 3 3 3 3 3 3 3 3 3 3 3
          3 3 3 3 3 3 3 3 3 3 3 3
          3 3 3 3 3 3 3 3 3 3 3 3
          3 3 3 3 3 3 3 3 3 3 3 3
          3 3 3 3 3 3 3 3 3 3 3 3
          3 3 3 3 3 3 3 3 3 3 3 3
          3 3 3 3 3 3 3 3 3 3 3 3
          3 3 3 3 3 3 3 3 3 3 3 3
          3 3 3 3 3 3 3 3 3 3 3 3
          3 3 3 3 3 3 3
        </DataArray>
      </CellData>
      <Points>
        <DataArray type="Float32" Name="Coordinates" NumberOfComponents="3" format="ascii">
          -0.00307692 -0.04 -0.078 0.00307692 -0.04 -0.078 -0.00307692 -0.0338462 -0.078 0.00307692 -0.0338462 -0.078
          -0.00307692 -0.04 -0.072 0.00307692 -0.04 -0.072 -0.00307692 -0.0338462 -0.072 0.00307692 -0.0338462 -0.072
          0.00923077 -0.04 -0.078 0.00923077 -0.0338462 -0.078 0.00923077 -0.04 -0.072 0.00923077 -0.0338462 -0.072
          0.0153846 -0.04 -0.078 0.0153846 -0.0338462 -0.078 0.0153846 -0.04 -0.072 0.0153846 -0.0338462 -0.072
          0.0215385 -0.04 -0.078 0.0215385 -0.0338462 -0.078 0.0215385 -0.04 -0.072 0.0215385 -0.0338462 -0.072
          0.0276923 -0.04 -0.078 0.0276923 -0.0338462 -0.078 0.0276923 -0.04 -0.072 0.0276923 -0.0338462 -0.072
          0.0338462 -0.04 -0.078 0.0338462 -0.0338462 -0.078 0.0338462 -0.04 -0.072 0.0338462 -0.0338462 -0.072
          0.04 -0.04 -0.078 0.04 -0.0338462 -0.078 0.04 -0.04 -0.072 0.04 -0.0338462 -0.072
          -0.00307692 -0.0276923 -0.078 0.00307692 -0.0276923 -0.078 -0.00307692 -0.0276923 -0.072 0.00307692 -0.0276923 -0.072
          0.00923077 -0.0276923 -0.078 0.00923077 -0.0276923 -0.072 0.0153846 -0.0276923 -0.078 0.0153846 -0.0276923 -0.072
          0.0215385 -0.0276923 -0.078 0.0215385 -0.0276923 -0.072 0.0276923 -0.0276923 -0.078 0.0276923 -0.0276923 -0.072
          0.0338462 -0.0276923 -0.078 0.0338462 -0.0276923 -0.072 0.04 -0.0276923 -0.078 0.04 -0.0276923 -0.072
          -0.00307692 -0.0215385 -0.078 0.00307692 -0.0215385 -0.078 -0.00307692 -0.0215385 -0.072 0.00307692 -0.0215385 -0.072
          0.00923077 -0.0215385 -0.078 0.00923077 -0.0215385 -0.072 0.0153846 -0.0215385 -0.078 0.0153846 -0.0215385 -0.072
          0.0215385 -0.0215385 -0.078 0.0215385 -0.0215385 -0.072 0.0276923 -0.0215385 -0.078 0.0276923 -0.0215385 -0.072
          0.0338462 -0.0215385 -0.078 0.0338462 -0.0215385 -0.072 0.04 -0.0215385 -0.078 0.04 -0.0215385 -0.072
          -0.00307692 -0.0153846 -0.078 0.00307692 -0.0153846 -0.078 -0.00307692 -0.0153846 -0.072 0.00307692 -0.0153846 -0.072
          0.00923077 -0.0153846 -0.078 0.00923077 -0.0153846 -0.072 0.0153846 -0.0153846 -0.078 0.0153846 -0.0153846 -0.072
          0.0215385 -0.0153846 -0.078 0.0215385 -0.0153846 -0.072 0.0276923 -0.0153846 -0.078 0.0276923 -0.0153846 -0.072
          0.0338462 -0.0153846 -0.078 0.0338462 -0.0153846 -0.072 0.04 -0.0153846 -0.078 0.04 -0.0153846 -0.072
          -0.00307692 -0.00923077 -0.078 0.00307692 -0.00923077 -0.078 -0.00307692 -0.00923077 -0.072 0.00307692 -0.00923077 -0.072
          0.00923077 -0.00923077 -0.078 0.00923077 -0.00923077 -0.072 0.0153846 -0.00923077 -0.078 0.0153846 -0.00923077 -0.072
          0.0215385 -0.00923077 -0.078 0.0215385 -0.00923077 -0.072 0.0276923 -0.00923077 -0.078 0.0276923 -0.00923077 -0.072
          0.0338462 -0.00923077 -0.078 0.0338462 -0.00923077 -0.072 0.04 -0.00923077 -0.078 0.04 -0.00923077 -0.072
          -0.00307692 -0.00307692 -0.078 0.00307692 -0.00307692 -0.078 -0.00307692 -0.00307692 -0.072 0.00307692 -0.00307692 -0.072
          0.00923077 -0.00307692 -0.078 0.00923077 -0.00307692 -0.072 0.0153846 -0.00307692 -0.078 0.0153846 -0.00307692 -0.072
          0.0215385 -0.00307692 -0.078 0.0215385 -0.00307692 -0.072 0.0276923 -0.00307692 -0.078 0.0276923 -0.00307692 -0.072
          0.0338462 -0.00307692 -0.078 0.0338462 -0.00307692 -0.072 0.04 -0.00307692 -0.078 0.04 -0.00307692 -0.072
          -0.00307692 0.00307692 -0.078 0.00307692 0.00307692 -0.078 -0.00307692 0.00307692 -0.072 0.00307692 0.00307692 -0.072
          0.00923077 0.00307692 -0.078 0.00923077 0.00307692 -0.072 0.0153846 0.00307692 -0.078 0.0153846 0.00307692 -0.072
          0.0215385 0.00307692 -0.078 0.0215385 0.00307692 -0.072 0.0276923 0.00307692 -0.078 0.0276923 0.00307692 -0.072