<?xml version="1.0"?>
<VTKFile type="UnstructuredGrid" version="0.1" byte_order="LittleEndian">
  <UnstructuredGrid>
    <Piece NumberOfCells="1014" NumberOfPoints="1372">
      <CellData Scalars="p (Pa)">
        <DataArray type="Float32" Name="p (Pa)" NumberOfComponents="1" format="ascii">
          21311.9 19446.2 15738.9 10584.9 5114.84 -727.539 20401.8 17952.3 12805.5 5346.67 -936.232 -7856.09
          18935.8 15221.8 6205.94 -9840.12 -15788 -25303.9 17855 12682.4 -3098.11 -51893.3 -40823.2 -57058.7
          18443.2 14222.9 3531.67 -17899.6 -37573.9 -83902.1 19932.9 16694.5 9084.16 -5591.53 -33710.1 -131328
          21695.3 19023.6 12672 -637.918 -33194.5 -150679 23532.4 21235.6 15541.3 1815.74 -49515 -496759
          25408.8 23572.9 19158.5 9684.89 -13177.8 -78601.5 27197.9 25867.7 22882.9 17440.5 8156.83 -4850.19
          28705.1 27789.4 25873.7 22839.2 18798 15049.1 29777.1 29131 27853.3 26028.6 23957.7 22384.6
          30329.5 29811.7 28820.9 27485.2 26087.2 25098 20115.4 17921.6 13468.7 7192.18 1173.29 -5074.88
          18972.7 15863.6 8829.72 -2607.58 -8642.15 -14892.2 17056.4 11626.7 -4949.86 -54970.5 -41356.4 -44828.9
          15598.9 6545.87 -43471.4 -588827 -137415 -133508 16883 11051.3 -7069.89 -64089.8 -73706.5 -166100
          19172.7 15520.2 6649.7 -10928 -37984.1 -137675 21545.3 18966 13060 1851.94 -20467.2 -91375.3
          23774.2 21797 17281.4 8529.4 -9832.79 -58634 25831.8 24340.3 21034.1 15108.9 5090.58 -9824.54
          27647.5 26577.6 24317.3 20660.8 15582.3 10349.3 29110.7 28363.3 26860.2 24644.6 21995.6 19788.6
          30128.9 29589.5 28547.4 27116.6 25570.2 24411.9 30648.9 30209 29379.2 28284.5 27161.8 26353.7
          19681 17395.6 12712.2 5908.36 -1332.07 -8800.12 18540.3 15342.8 8078.27 -4156.92 -14938.9 -23132.7
          16665.5 11235.1 -5011.13 -53047.4 -87178.6 -96506.4 15337.9 6658.85 -37712.9 -463368 -696072 -704466
          16744.9 11003.4 -6446.66 -59905.3 -138119 -709988 19261.5 15718.5 7235.18 -9232.31 -36218.8 -113447
          21889.2 19533.5 14335.7 5299.04 -9332.26 -35983.3 24307.4 22634.2 19044.4 13018.9 3718.75 -9531.8
          26438.2 25236.9 22732.3 18762.5 13319.9 7381.98 28230.6 27382 25672.6 23137.5 20039 17236
          29626.8 29029.8 27867.2 26244.5 24433.7 22972.8 30579.9 30141.4 29311 28205.2 27046.3 26166.2
          31062.2 30699.4 30023.5 29147.1 28258.6 27600 20029.3 17888.7 13522.6 7087.27 -554.281 -9160.73
          19090.3 16307.3 10290.2 820.711 -9772.4 -19991.2 17639.9 13520.2 3302.89 -16608.5 -38207.6 -52981.7
          16757 11223.8 -5540.47 -57632.6 -120428 -154562 17799.2 13304.1 1647.57 -23788.6 -66698.5 -180786
          20024.9 16903.9 9698.92 -3488.54 -24809.7 -62571.1 22569.3 20453 15875.8 8235.2 -3075.88 -18326.7
          24985.1 23532.9 20513.4 15772.8 9357.85 2207.43 27096.9 26094.3 24075.2 21077.8 17373 13814.7
          28833.1 28140.4 26785.5 24874.8 22688.9 20796.9 30156.6 29671.4 28746.4 27497 26150.4 25059.3
          31046.6 30688.1 30018 29141.8 28235.5 27528.2 31493.3 31194.4 30642.3 29933.4 29215.8 28664.9
          20872.3 18912.5 14883.7 8754.04 883.595 -8339.71 20132.6 17705.8 12485.5 4040.27 -7048.18 -18151.8
          19027.7 15700 7804.83 -7256.98 -30429.5 -43883.4 18382.4 14164.7 2808.27 -25630.2 -94504.3 -100343
          19115.6 15195.1 4801.71 -21239 -95105.4 -174330 21012 18088.3 11065.6 -3286.22 -32227 -90186.5
          23370.4 21371.8 16949.9 9186.48 -3229.89 -20073.5 25690.1 24357.6 21579.4 17196.1 11267 4962.66
          27728.9 26842.2 25071.8 22482.6 19355 16450.8 29390.3 28794.9 27643.4 26048.2 24259.2 22717.6
          30641.7 30231.1 29455.6 28421.9 27318.2 26407.8 31474.9 31173 30612.3 29884.3 29131.1 28525.3
          31890.7 31639.1 31176 30583.1 29979.5 29499.9 21957.1 20155.3 16391.2 10446.4 2390.77 -6725.06
          21361.1 19164.3 14307.1 5803.91 -7281.29 -18003.4 20468.2 17484.1 9961.65 -7723.22 -56542.3 -56981
          19913.4 16026.3 3959.7 -48433.3 -545892 -197442 20447 16607.8 4480.04 -50392.5 -598726 -748258
          22077.4 19199.7 11601.9 -8553.21 -83825.5 -568703 24219.1 22276.2 17765.3 8868.92 -9582.22 -52963.2
          26384.9 25120.3 22426 17966 11330.2 3067.4 28309.3 27490.9 25845.3 23400.5 20358 17425.4
          29878.8 29342.6 28305 26863.3 25231.9 23800.9 31056.8 30693.4 30008.1 29094.8 28114 27287.4
          31837.9 31573.6 31083.1 30445.8 29781.4 29232.5 32226.5 32007.2 31603.7 31086.1 30554 30118.6
          23144.4 21523.4 18124.7 12699 5136.43 -4057.51 22679 20759.3 16547.1 9262.09 -2027.2 -16533
          21992.1 19508 13531.4 1094.85 -25437.5 -81672 21575.2 18498.2 10176.8 -12794.5 -101607 -691067
          21984.4 18893.5 10405.2 -13786.8 -111361 -753900 23300.2 20804.6 14418.6 -1581.26 -62677.1 -627123
          25138.3 23376.6 19290.9 11181.2 -6430.33 -55927.2 27075.3 25907.1 23408.4 19222.9 12786.7 3971.89
          28838.7 28080.5 26551 24260.4 21356 18431.1 30295.5 29801 28842.4 27503.8 25971.7 24593.9
          31395.4 31062.7 30434.6 29594.1 28683.2 27899.2 32126.3 31886 31439.4 30857 30244 29726.6
          32490.1 32291.6 31925.8 31454.5 30965.2 30555.7 24310.1 22875.6 19873.6 15072.1 8271.18 -342.17
          23958.6 22315.4 18758.6 12705.7 3277.67 -10018.5 23452.1 21438.3 16791.9 7763.33 -10501.2 -53650.8
          23163.6 20795.9 14931.4 1270.75 -44908.5 -419194 23491.5 21121.7 15275.3 2303.05 -30700.5 -145650
          24529.1 22516.7 17740.4 7913.37 -14123.3 -76550.2 26049 24543.6 21185.5 15115.8 4622.71 -12368.9
          27724.8 26681.1 24486.7 20950.8 15945.3 10093.1 29302.7 28605.6 27207.9 25140.9 22577.2 20047.2
          30635.8 30174.1 29279.9 28033 26606.2 25308.2 31656.1 31343.7 30752.8 29960.1 29095.4 28339.2
          32339.5 32113.6 31693.1 31142.2 30557.7 30056.7 32680.9 32494.6 32150.4 31704.9 31238.5 30842.4
          25346.9 24075.7 21424.3 17192.2 11160.6 3311.09 25080.6 23667 20648.8 15621.6 7977.23 -2785.59
          24704.1 23050.9 19374.4 12740 1133.14 -19068.6 24499.3 22632.8 18314.6 9800.91 -8381.35 -58051.4
          24756.6 22884.1 18558.6 10180.9 -6380.58 -43766.8 25574.1 23923.9 20204.9 13366.7 1213.23 -20166.4
          26823.8 25525 22714.2 17944.7 10613 696.685 28264.1 27321 25365.8 22301.6 18156.8 13512.6
          29669.9 29018 27716.5 25806.7 23460.4 21128.8 30888.9 30447.7 29592.5 28398.4 27026.2 25756.9
          31838.1 31536.1 30963.6 30191.9 29343.6 28591.1 32480.4 32261.2 31852 31313.2 30737.2 30238.1
          32803.1 32622.2 32287.2 31851.5 31392.3 30998.8 26183 25034 22639.9 18811.8 13293.7 5871.52
          25969.2 24715.5 22056.3 17660.1 10960.9 1090.87 25666.6 24241 21128.5 15690.5 6583.22 -9078.68
          25494.9 23915.6 20374.9 13854 1851.94 -22164.3 25681.7 24077.6 20459.9 13736.2 1171.46 -25703.3
          26332.4 24871.9 21626.1 15789.9 5680.37 -11967.1 27380.4 26184.7 23607.4 19252.5 12545.4 3184.75
          28642.1 27743.2 25874.6 22925.5 18869 14127.5 29916.1 29278.9 27999.4 26100 23718.1 21262.9
          31048 30610.1 29756 28549.5 27138 25799.3 31943.6 31641.8 31066.5 30283.8 29411.9 28627.1
          32555.7 32336.4 31925.2 31380.1 30792.2 30279 32864.8 32684 32348.1 31908.9 31443.3 31042.6
          26788.7 25720.8 23494.4 19923.1 14718.9 7514.36 26600.5 25444 22992.2 18925.6 12608.4 2593.2
          26327.5 25023.1 22181.5 17205.8 8627.85 -8522.51 26151.6 24703.1 21460.2 15468.1 4145.06 -21572.2
          26268.8 24764.4 21339 14777.6 1475.65 -32225.4 26795.8 25382.4 22180.3 16129.3 4347.29 -21974.9
          27706.2 26515.8 23892.1 19230.9 11305.1 -1823.52 28850.9 27938.3 26001.4 22812.1 18083.5 11881.6
          30041.2 29387.3 28051.8 26004.2 23298.7 20305 31119 30668.1 29777.4 28490.4 26933.2 25397.6
          31982.2 31671.9 31075.4 30251.6 29315.4 28456.9 32576.4 32351.9 31928.7 31362.5 30745.2 30202.5
          32877.5 32693.2 32349.4 31897.4 31415 30999.2 27164.1 26145.8 24025.6 20637.5 15756.6 9231.53
          26985 25883.4 23551.2 19700.8 13819.9 5077.08 26717.1 25471.2 22756.9 18013.6 9978.51 -4463.83
          26520.9 25119.1 21958.6 16021.5 4415.38 -23278.6 26578.8 25084.6 21607.2 14542.9 -2422.11 -71999.6
          27019.2 25573.9 22185.2 15192.7 -1979.64 -72175.9 27843.8 26601.2 23761.2 18277.7 7134.62 -19209.5
          28923 27962.1 25860.1 22170.3 15996 5977.19 30070.3 29382 27944.2 25640 22354.4 18264.5
          31122.5 30650.2 29702.9 28294.8 26513.2 24650.2 31971.1 31648.5 31022.3 30142.7 29118.5 28154.8
          32557.4 32325.9 31886.8 31293.8 30639.4 30058.8 32855.2 32666.1 32312.1 31844 31341.6 30907.6
          27319.2 26325.3 24260.1 20979.6 16326.8 10340.6 27142.4 26066.8 23795.7 20078 14538.7 6844.89
          26872.6 25652.5 23002.4 18425.5 10978.5 -854.829 26660.9 25276.4 22159.8 16381.5 5752.23 -14668.3
          26684.3 25185.8 21686.2 14645.7 -677.814 -40472 27077.9 25598.3 22067.8 14525 -5061.81 -87786.9
          27859.6 26567.3 23530 17230 1640.17 -63045.5 28910.1 27907 25659.1 21487.5 13574.6 -3628.22
          30041.4 29325 27802.5 25272.2 21395.8 15837.9 31085.3 30596.5 29605.4 28099.1 26118.8 23913.3
          31929.6 31598.1 30950 30028.2 28934 27877.9 32513.8 32277.3 31827 31214.7 30533 29923.1
          32810.7 32618.3 32257.3 31778.1 31261.5 30814.5
        </DataArray>
        <DataArray type="Float32" Name="saturation" NumberOfComponents="1" format="ascii">
          0.287481 0.286071 0.283416 0.280019 0.27674 0.273555 0.286787 0.284978 0.281444 0.276873 0.273447 0.270046
          0.285694 0.28306 0.27737 0.269134 0.266552 0.262833 0.284908 0.281363 0.272345 0.254472 0.257646 0.253115
          0.285333 0.282383 0.275847 0.265686 0.258655 0.247063 0.286434 0.284082 0.279089 0.27112 0.259904 0.239222
          0.287778 0.285758 0.281356 0.273602 0.260075 0.236722 0.289232 0.287423 0.28328 0.274904 0.255123 0.216167
          0.290775 0.289264 0.285858 0.279458 0.267659 0.248142 0.292305 0.291162 0.288711 0.284611 0.278525 0.271479
          0.293641 0.292824 0.291167 0.288677 0.285592 0.282942 0.294619 0.294027 0.29288 0.291298 0.289576 0.288317
          0.295132 0.294651 0.293745 0.292556 0.291348 0.290515 0.286571 0.284956 0.28188 0.277949 0.274558 0.27137
          0.285721 0.283502 0.278933 0.272592 0.269682 0.266927 0.284338 0.28068 0.271431 0.253655 0.257484 0.256453
          0.283319 0.277569 0.256851 0.213683 0.238401 0.238924 0.284215 0.280314 0.270415 0.251378 0.249185 0.23494
          0.285868 0.283265 0.277629 0.268646 0.258525 0.238366 0.287662 0.285716 0.28161 0.274924 0.264665 0.245624
          0.289427 0.287857 0.284497 0.278751 0.269138 0.252715 0.291131 0.289889 0.287268 0.282983 0.276726 0.269141
          0.292699 0.291768 0.28987 0.286983 0.283308 0.279872 0.294008 0.293334 0.292011 0.290139 0.288012 0.286326
          0.294945 0.294446 0.293499 0.292234 0.29091 0.289947 0.295432 0.29502 0.294253 0.293264 0.292273 0.291575
          0.286245 0.284579 0.281383 0.277197 0.273242 0.269609 0.285404 0.283143 0.278478 0.271819 0.266908 0.263641
          0.284062 0.280431 0.271401 0.254163 0.246421 0.244686 0.28314 0.277635 0.258611 0.217226 0.211385 0.211226
          0.284118 0.280284 0.27071 0.252397 0.238308 0.211123 0.285934 0.283402 0.277975 0.269411 0.259086 0.24185
          0.287929 0.286135 0.282459 0.276846 0.269365 0.259162 0.289862 0.288514 0.285773 0.281583 0.275951 0.269274
          0.291648 0.290631 0.288592 0.285566 0.281782 0.278062 0.293216 0.292466 0.290997 0.288914 0.286513 0.284465
          0.29448 0.293935 0.292893 0.291482 0.289965 0.288783 0.295367 0.294957 0.294191 0.293193 0.292173 0.291415
          0.295823 0.29548 0.294847 0.294041 0.29324 0.292657 0.286506 0.284932 0.281916 0.277887 0.273645 0.269444
          0.285807 0.283811 0.279835 0.27437 0.269165 0.264851 0.284753 0.281914 0.27572 0.266212 0.258455 0.25418
          0.284126 0.280423 0.271144 0.252969 0.240784 0.236257 0.284868 0.281771 0.274813 0.263395 0.250763 0.23339
          0.286503 0.28423 0.279467 0.27215 0.263015 0.251743 0.288463 0.286825 0.283511 0.278573 0.272356 0.265513
          0.290421 0.289232 0.286871 0.283439 0.279256 0.275117 0.292217 0.291354 0.289672 0.287301 0.284563 0.28211
          0.293756 0.293135 0.291947 0.290329 0.288557 0.287087 0.294971 0.294521 0.293678 0.292566 0.291402 0.290483
          0.295808 0.295469 0.294842 0.294037 0.29322 0.292594 0.296235 0.295949 0.295426 0.294763 0.294104 0.293605
          0.287144 0.285676 0.28283 0.278887 0.274403 0.269821 0.286584 0.284801 0.281235 0.276131 0.270425 0.265584
          0.285761 0.283389 0.278314 0.270326 0.261011 0.25673 0.285289 0.282344 0.275446 0.262714 0.245047 0.24401
          0.285826 0.283042 0.276562 0.264365 0.244938 0.234055 0.287251 0.285076 0.280323 0.272251 0.260399 0.245847
          0.289101 0.287528 0.284262 0.279151 0.272279 0.264819 0.291011 0.289903 0.287688 0.284437 0.280451 0.276653
          0.29277 0.291996 0.290493 0.288394 0.286003 0.283911 0.294263 0.293722 0.292695 0.291315 0.289822 0.28858
          0.295425 0.29504 0.294323 0.293386 0.29241 0.291622 0.296217 0.295929 0.295398 0.294718 0.294027 0.293479
          0.296618 0.296375 0.295931 0.29537 0.294806 0.294364 0.287982 0.286601 0.283869 0.279933 0.275217 0.270578
          0.287519 0.285862 0.28244 0.277137 0.270315 0.265644 0.286837 0.284642 0.27963 0.270108 0.253247 0.253135
          0.286419 0.283615 0.276086 0.255424 0.214771 0.231781 0.286821 0.284021 0.276379 0.254881 0.213447 0.210438
          0.288076 0.285888 0.280665 0.269723 0.247079 0.214179 0.289789 0.288232 0.284843 0.278957 0.269251 0.254185
          0.291602 0.290533 0.28835 0.284988 0.280491 0.275589 0.293286 0.292561 0.291143 0.289125 0.286754 0.2846
          0.294713 0.29422 0.293282 0.292014 0.290627 0.289449 0.295818 0.295474 0.294833 0.293994 0.293112 0.292383
          0.296567 0.296312 0.295843 0.295241 0.294623 0.294119 0.296945 0.296732 0.296341 0.295846 0.295343 0.294935
          0.28892 0.287645 0.285102 0.281374 0.276753 0.271868 0.288549 0.287058 0.283978 0.279198 0.272886 0.266243
          0.288009 0.286116 0.281922 0.274516 0.262784 0.247511 0.287685 0.285373 0.279764 0.267825 0.243792 0.211481
          0.288003 0.285663 0.279907 0.267397 0.24218 0.210341 0.289045 0.287093 0.282515 0.273114 0.251717 0.2128
          0.290549 0.289106 0.285955 0.280396 0.270718 0.253406 0.292198 0.291195 0.289132 0.285905 0.281431 0.276093
          0.293762 0.293082 0.291745 0.289823 0.287515 0.285325 0.2951 0.294641 0.293765 0.292572 0.29125 0.290097
          0.296141 0.295824 0.295231 0.29445 0.293621 0.292921 0.296847 0.296614 0.296183 0.295628 0.295052 0.294572
          0.297204 0.297009 0.296652 0.296198 0.295731 0.295344 0.289864 0.288705 0.286389 0.282958 0.278594 0.273756
          0.289577 0.288262 0.285564 0.281378 0.275706 0.269054 0.289167 0.287579 0.284151 0.278289 0.268836 0.254002
          0.288935 0.287086 0.282862 0.274611 0.25643 0.218791 0.289199 0.287335 0.283097 0.275169 0.260918 0.237341
          0.290044 0.288421 0.284825 0.278379 0.267253 0.248574 0.291315 0.290056 0.287384 0.282988 0.27646 0.26801
          0.292767 0.291857 0.290009 0.287204 0.283559 0.279712 0.294183 0.293551 0.292314 0.290551 0.288469 0.286519
          0.29542 0.294987 0.294162 0.29304 0.291792 0.29069 0.296392 0.296092 0.29553 0.294788 0.293994 0.293312
          0.297056 0.296835 0.296427 0.295899 0.295346 0.294878 0.297392 0.297208 0.296871 0.296439 0.295991 0.295615
          0.290723 0.289672 0.287568 0.284434 0.280383 0.275724 0.2905 0.28934 0.286974 0.283335 0.278417 0.272502
          0.290188 0.288845 0.286017 0.281401 0.274537 0.265216 0.290019 0.288513 0.28524 0.27953 0.269802 0.252862
          0.290231 0.288712 0.285417 0.279766 0.270741 0.256764 0.290914 0.289549 0.286638 0.281813 0.27458 0.264783
          0.29198 0.290872 0.288577 0.284972 0.280037 0.274304 0.293245 0.292412 0.290739 0.288252 0.285126 0.281909
          0.29452 0.293924 0.29276 0.29111 0.289174 0.287341 0.295659 0.295243 0.294449 0.293365 0.292155 0.291068
          0.296567 0.296276 0.295729 0.295004 0.294221 0.293538 0.297194 0.296979 0.296581 0.296062 0.295515 0.295047
          0.297512 0.297334 0.297005 0.296581 0.296138 0.295763 0.29143 0.290462 0.288518 0.285603 0.281764 0.277176
          0.291248 0.290197 0.288059 0.284768 0.280257 0.274514 0.290992 0.289807 0.28734 0.283382 0.27759 0.269481
          0.290847 0.289542 0.286766 0.282136 0.274924 0.264009 0.291004 0.289674 0.286831 0.282058 0.274557 0.262687
          0.291557 0.290327 0.287724 0.283451 0.277065 0.268186 0.292464 0.291431 0.289292 0.285927 0.281274 0.275654
          0.293584 0.292783 0.291167 0.288745 0.285645 0.282319 0.294747 0.294162 0.29301 0.291359 0.289382 0.287444
          0.29581 0.295395 0.294599 0.293501 0.292253 0.291104 0.29667 0.296378 0.295827 0.295089 0.294283 0.293571
          0.297268 0.297053 0.296652 0.296126 0.295567 0.295085 0.297574 0.297395 0.297064 0.296636 0.296187 0.295804
          0.29195 0.291037 0.289201 0.286426 0.282718 0.278141 0.291787 0.290804 0.288798 0.285686 0.281315 0.275328
          0.291553 0.290453 0.288157 0.284444 0.27881 0.269737 0.291403 0.290187 0.287596 0.283229 0.27619 0.264236
          0.291503 0.290238 0.287502 0.282758 0.274721 0.2604 0.291956 0.290753 0.288156 0.283687 0.276304 0.264081
          0.29275 0.291715 0.289523 0.285911 0.280475 0.27299 0.293773 0.292956 0.291275 0.288655 0.285072 0.280844
          0.294863 0.294261 0.293056 0.291277 0.289044 0.286713 0.295877 0.29545 0.294619 0.293448 0.292075 0.290765
          0.296707 0.296407 0.295836 0.295059 0.294195 0.293418 0.297288 0.297068 0.296655 0.29611 0.295523 0.295014
          0.297586 0.297404 0.297066 0.296625 0.29616 0.295763 0.292275 0.291398 0.289631 0.286965 0.283428 0.279179
          0.29212 0.291175 0.289247 0.28626 0.282113 0.276719 0.291888 0.290827 0.288611 0.285022 0.27964 0.271668
          0.291719 0.290532 0.287983 0.283612 0.276343 0.263586 0.291769 0.290504 0.28771 0.282599 0.272686 0.24956
          0.292149 0.290914 0.28816 0.28304 0.27291 0.249521 0.292872 0.291788 0.289416 0.285213 0.277915 0.26516
          0.293838 0.292977 0.291155 0.288149 0.283594 0.277237 0.294891 0.294256 0.292961 0.290969 0.288293 0.285204
          0.29588 0.295433 0.294551 0.293273 0.291712 0.290143 0.296696 0.296384 0.295785 0.294958 0.294015 0.293148
          0.29727 0.297042 0.296615 0.296044 0.295423 0.29488 0.297564 0.297377 0.297029 0.296573 0.29609 0.295676
          0.292411 0.291551 0.289823 0.287226 0.283824 0.279866 0.292256 0.291331 0.289444 0.286542 0.282596 0.277744
          0.292022 0.29098 0.288807 0.285321 0.280268 0.273489 0.291839 0.290664 0.28814 0.283863 0.277107 0.267022
          0.29186 0.290588 0.287771 0.282668 0.273581 0.257753 0.2922 0.290934 0.288068 0.282587 0.271376 0.246304
          0.292886 0.291759 0.28923 0.284461 0.274809 0.251628 0.293826 0.292928 0.290985 0.287617 0.28195 0.272081
          0.294864 0.294204 0.292835 0.29066 0.287546 0.283484 0.295845 0.295383 0.294461 0.293098 0.291375 0.28954
          0.296656 0.296336 0.295716 0.294851 0.293848 0.292902 0.297227 0.296995 0.296557 0.295968 0.295323 0.294754
          0.29752 0.29733 0.296975 0.296509 0.296013 0.295588
        </DataArray>
        <DataArray type="Float32" Name="process rank" NumberOfComponents="1" format="ascii">
          2 2 2 2 2 2 2 2 2 2 2 2
          2 2 2 2 2 2 2 2 2 2 2 2
          2 2 2 2 2 2 2 2 2 2 2 2
          2 2 2 2 2 2 2 2 2 2 2 2
          2 2 2 2 2 2 2 2 2 2 2 2
          2 2 2 2 2 2 2 2 2 2 2 2
          2 2 2 2 2 2 2 2 2 2 2 2
          2 2 2 2 2 2 2 2 2 2 2 2
          2 2 2 2 2 2 2 2 2 2 2 2
          2 2 2 2 2 2 2 2 2 2 2 2
          2 2 2 2 2 2 2 2 2 2 2 2
          2 2 2 2 2 2 2 2 2 2 2 2
          2 2 2 2 2 2 2 2 2 2 2 2
          2 2 2 2 2 2 2 2 2 2 2 2
          2 2 2 2 2 2 2 2 2 2 2 2
          2 2 2 2 2 2 2 2 2 2 2 2
          2 2 2 2 2 2 2 2 2 2 2 2
          2 2 2 2 2 2 2 2 2 2 2 2
          2 2 2 2 2 2 2 2 2 2 2 2
          2 2 2 2 2 2 2 2 2 2 2 2
          2 2 2 2 2 2 2 2 2 2 2 2
          2 2 2 2 2 2 2 2 2 2 2 2
          2 2 2 2 2 2 2 2 2 2 2 2
          2 2 2 2 2 2 2 2 2 2 2 2
          2 2 2 2 2 2 2 2 2 2 2 2
          2 2 2 2 2 2 2 2 2 2 2 2
          2 2 2 2 2 2 2 2 2 2 2 2
          2 2 2 2 2 2 2 2 2 2 2 2
          2 2 2 2 2 2 2 2 2 2 2 2
          2 2 2 2 2 2 2 2 2 2 2 2
          2 2 2 2 2 2 2 2 2 2 2 2
          2 2 2 2 2 2 2 2 2 2 2 2
          2 2 2 2 2 2 2 2 2 2 2 2
          2 2 2 2 2 2 2 2 2 2 2 2
          2 2 2 2 2 2 2 2 2 2 2 2
          2 2 2 2 2 2 2 2 2 2 2 2
          2 2 2 2 2 2 2 2 2 2 2 2
          2 2 2 2 2 2 2 2 2 2 2 2
          2 2 2 2 2 2 2 2 2 2 2 2
          2 2 2 2 2 2 2 2 2 2 2 2
          2 2 2 2 2 2 2 2 2 2 2 2
          2 2 2 2 2 2 2 2 2 2 2 2
          2 2 2 2 2 2 2 2 2 2 2 2
          2 2 2 2 2 2 2 2 2 2 2 2
          2 2 2 2 2 2 2 2 2 2 2 2
          2 2 2 2 2 2 2 2 2 2 2 2
          2 2 2 2 2 2 2 2 2 2 2 2
          2 2 2 2 2 2 2 2 2 2 2 2
          2 2 2 2 2 2 2 2 2 2 2 2
          2 2 2 2 2 2 2 2 2 2 2 2
          2 2 2 2 2 2 2 2 2 2 2 2
          2 2 2 2 2 2 2 2 2 2 2 2
          2 2 2 2 2 2 2 2 2 2 2 2
          2 2 2 2 2 2 2 2 2 2 2 2
          2 2 2 2 2 2 2 2 2 2 2 2
          2 2 2 2 2 2 2 2 2 2 2 2
          2 2 2 2 2 2 2 2 2 2 2 2
          2 2 2 2 2 2 2 2 2 2 2 2
          2 2 2 2 2 2 2 2 2 2 2 2
          2 2 2 2 2 2 2 2 2 2 2 2
          2 2 2 2 2 2 2 2 2 2 2 2
          2 2 2 2 2 2 2 2 2 2 2 2
          2 2 2 2 2 2 2 2 2 2 2 2
          2 2 2 2 2 2 2 2 2 2 2 2
          2 2 2 2 2 2 2 2 2 2 2 2
          2 2 2 2 2 2 2 2 2 2 2 2
          2 2 2 2 2 2 2 2 2 2 2 2
          2 2 2 2 2 2 2 2 2 2 2 2
          2 2 2 2 2 2 2 2 2 2 2 2
          2 2 2 2 2 2 2 2 2 2 2 2
          2 2 2 2 2 2 2 2 2 2 2 2
          2 2 2 2 2 2 2 2 2 2 2 2
          2 2 2 2 2 2 2 2 2 2 2 2
          2 2 2 2 2 2 2 2 2 2 2 2
          2 2 2 2 2 2 2 2 2 2 2 2
          2 2 2 2 2 2 2 2 2 2 2 2
          2 2 2 2 2 2 2 2 2 2 2 2
          2 2 2 2 2 2 2 2 2 2 2 2
          2 2 2 2 2 2 2 2 2 2 2 2
          2 2 2 2 2 2 2 2 2 2 2 2
          2 2 2 2 2 2 2 2 2 2 2 2
          2 2 2 2 2 2 2 2 2 2 2 2
          2 2 2 2 2 2 2 2 2 2 2 2
          2 2 2 2 2 2 2 2 2 2 2 2
          2 2 2 2 2 2
        </DataArray>
      </CellData>
      <Points>
        <DataArray type="Float32" Name="Coordinates" NumberOfComponents="3" format="ascii">
          -0.04 -0.04 -0.078 -0.0338462 -0.04 -0.078 -0.04 -0.0338462 -0.078 -0.0338462 -0.0338462 -0.078
          -0.04 -0.04 -0.072 -0.0338462 -0.04 -0.072 -0.04 -0.0338462 -0.072 -0.0338462 -0.0338462 -0.072
          -0.0276923 -0.04 -0.078 -0.0276923 -0.0338462 -0.078 -0.0276923 -0.04 -0.072 -0.0276923 -0.0338462 -0.072
          -0.0215385 -0.04 -0.078 -0.0215385 -0.0338462 -0.078 -0.0215385 -0.04 -0.072 -0.0215385 -0.0338462 -0.072
          -0.0153846 -0.04 -0.078 -0.0153846 -0.0338462 -0.078 -0.0153846 -0.04 -0.072 -0.0153846 -0.0338462 -0.072
          -0.00923077 -0.04 -0.078 -0.00923077 -0.0338462 -0.078 -0.00923077 -0.04 -0.072 -0.00923077 -0.0338462 -0.072
          -0.00307692 -0.04 -0.078 -0.00307692 -0.0338462 -0.078 -0.00307692 -0.04 -0.072 -0.00307692 -0.0338462 -0.072
          -0.04 -0.0276923 -0.078 -0.0338462 -0.0276923 -0.078 -0.04 -0.0276923 -0.072 -0.0338462 -0.0276923 -0.072
          -0.0276923 -0.0276923 -0.078 -0.0276923 -0.0276923 -0.072 -0.0215385 -0.0276923 -0.078 -0.0215385 -0.0276923 -0.072
          -0.0153846 -0.0276923 -0.078 -0.0153846 -0.0276923 -0.072 -0.00923077 -0.0276923 -0.078 -0.00923077 -0.0276923 -0.072
          -0.00307692 -0.0276923 -0.078 -0.00307692 -0.0276923 -0.072 -0.04 -0.0215385 -0.078 -0.0338462 -0.0215385 -0.078
          -0.04 -0.0215385 -0.072 -0.0338462 -0.0215385 -0.072 -0.0276923 -0.0215385 -0.078 -0.0276923 -0.0215385 -0.072
          -0.0215385 -0.0215385 -0.078 -0.0215385 -0.0215385 -0.072 -0.0153846 -0.0215385 -0.078 -0.0153846 -0.0215385 -0.072
          -0.00923077 -0.0215385 -0.078 -0.00923077 -0.0215385 -0.072 -0.00307692 -0.0215385 -0.078 -0.00307692 -0.0215385 -0.072
          -0.04 -0.0153846 -0.078 -0.0338462 -0.0153846 -0.078 -0.04 -0.0153846 -0.072 -0.0338462 -0.0153846 -0.072
          -0.0276923 -0.0153846 -0.078 -0.0276923 -0.0153846 -0.072 -0.0215385 -0.0153846 -0.078 -0.0215385 -0.0153846 -0.072
          -0.0153846 -0.0153846 -0.078 -0.0153846 -0.0153846 -0.072 -0.00923077 -0.0153846 -0.078 -0.00923077 -0.0153846 -0.072
          -0.00307692 -0.0153846 -0.078 -0.00307692 -0.0153846 -0.072 -0.04 -0.00923077 -0.078 -0.0338462 -0.00923077 -0.078
          -0.04 -0.00923077 -0.072 -0.0338462 -0.00923077 -0.072 -0.0276923 -0.00923077 -0.078 -0.0276923 -0.00923077 -0.072
          -0.0215385 -0.00923077 -0.078 -0.0215385 -0.00923077 -0.072 -0.0153846 -0.00923077 -0.078 -0.0153846 -0.00923077 -0.072
          -0.00923077 -0.00923077 -0.078 -0.00923077 -0.00923077 -0.072 -0.00307692 -0.00923077 -0.078 -0.00307692 -0.00923077 -0.072
          -0.04 -0.00307692 -0.078 -0.0338462 -0.00307692 -0.078 -0.04 -0.00307692 -0.072 -0.0338462 -0.00307692 -0.072
          -0.0276923 -0.00307692 -0.078 -0.0276923 -0.00307692 -0.072 -0.0215385 -0.00307692 -0.078 -0.0215385 -0.00307692 -0.072
          -0.0153846 -0.00307692 -0.078 -0.0153846 -0.00307692 -0.072 -0.00923077 -0.00307692 -0.078 -0.00923077 -0.00307692 -0.072
          -0.00307692 -0.00307692 -0.078 -0.00307692 -0.00307692 -0.072 -0.04 0.00307692 -0.078 -0.0338462 0.00307692 -0.078
          -0.04 0.00307692 -0.072 -0.0338462 0.00307692 -0.072 -0.0276923 0.00307692 -0.078 -0.0276923 0.00307692 -0.072
          -0.0215385 0.00307692 -0.078 -0.0215385 0.00307692 -0.072 -0.0153846 0.00307692 -0.078 -0.0153846 0.00307692 -0.072
          -0.00923077 0.00307692 -0.078 -0.00923077 0.00307692 -0.072 -0.00307692 0.00307692 -0.078 -0.00307692 0.00307692 -0.072
          -0.04 0.00923077 -0.078 -0.0338462 0.00923077 -0.078 -0.04 0.00923077 -0.072 -0.0338462 0.00923077 -0.072
          -0.0276923 0.00923077 -0.078 -0.0276923 0.00923077 -0.072 -0.0215385 0.00923077 -0.078 -0.0215385 0.00923077 -0.072
          -0.0153846 0.00923077 -0.078 -0.0153846 0.00923077 -0.072 -0.00923077 0.00923077 -0.078 -0.00923077 0.00923077 -0.072
          -0.00307692 0.00923077 -0.078 -0.00307692 0.00923077 -0.072 -0.04 0.0153846 -0.078 -0.0338462 0.0153846 -0.078
          -0.04 0.0153846 -0.072 -0.0338462 0.0153846 -0.072 -0.0276923 0.0153846 -0.078 -0.0276923 0.0153846 -0.072
          -0.0215385 0.0153846 -0.078 -0.0215385 0.0153846 -0.072 -0.0153846 0.0153846 -0.078 -0.0153846 0.0153846 -0.072
          -0.00923077 0.0153846 -0.078 -0.00923077 0.0153846 -0.072 -0.00307692 0.0153846 -0.078 -0.00307692 0.0153846 -0.072
          -0.04 0.0215385 -0.078 -0.0338462 0.0215385 -0.078 -0.04 0.0215385 -0.072 -0.0338462 0.0215385 -0.072
          -0.0276923 0.0215385 -0.078 -0.0276923 0.0215385 -0.072 -0.0215385 0.0215385 -0.078 -0.0215385 0.0215385 -0.072
          -0.0153846 0.0215385 -0.078 -0.0153846 0.0215385 -0.072 -0.00923077 0.0215385 -0.078 -0.00923077 0.0215385 -0.072
          -0.00307692 0.0215385 -0.078 -0.00307692 0.0215385 -0.072 -0.04 0.0276923 -0.078 -0.0338462 0.0276923 -0.078
          -0.04 0.0276923 -0.072 -0.0338462 0.0276923 -0.072 -0.0276923 0.0276923 -0.078 -0.0276923 0.0276923 -0.072
          -0.0215385 0.0276923 -0.078 -0.0215385 0.0276923 -0.072 -0.0153846 0.0276923 -0.078 -0.0153846 0.0276923 -0.072
          -0.00923077 0.0276923 -0.078 -0.00923077 0.0276923 -0.072 -0.00307692 0.0276923 -0.078 -0.00307692 0.0276923 -0.072
          -0.04 0.0338462 -0.078 -0.0338462 0.0338462 -0.078 -0.04 0.0338462 -0.072 -0.0338462 0.0338462 -0.072
          -0.0276923 0.0338462 -0.078 -0.0276923 0.0338462 -0.072 -0.0215385 0.0338462 -0.078 -0.0215385 0.0338462 -0.072
          -0.0153846 0.0338462 -0.078 -0.0153846 0.0338462 -0.072 -0.00923077 0.0338462 -0.078 -0.00923077 0.0338462 -0.072
          -0.00307692 0.0338462 -0.078 -0.00307692 0.0338462 -0.072 -0.04 0.04 -0.078 -0.0338462 0.04 -0.078
          -0.04 0.04 -0.072 -0.0338462 0.04 -0.072 -0.0276923 0.04 -0.078 -0.0276923 0.04 -0.072
          -0.0215385 0.04 -0.078 -0.0215385 0.04 -0.072 -0.0153846 0.04 -0.078 -0.0153846 0.04 -0.072
          -0.00923077 0.04 -0.078 -0.00923077 0.04 -0.072 -0.00307692 0.04 -0.078 -0.00307692 0.04 -0.072
          -0.04 -0.04 -0.066 -0.0338462 -0.04 -0.066 -0.04 -0.0338462 -0.066 -0.0338462 -0.0338462 -0.066
          -0.0276923 -0.04 -0.066 -0.0276923 -0.0338462 -0.066 -0.0215385 -0.04 -0.066 -0.0215385 -0.0338462 -0.066
          -0.0153846 -0.04 -0.066 -0.0153846 -0.0338462 -0.066 -0.00923077 -0.04 -0.066 -0.00923077 -0.0338462 -0.066
          -0.00307692 -0.04 -0.066 -0.00307692 -0.0338462 -0.066 -0.04 -0.0276923 -0.066 -0.0338462 -0.0276923 -0.066
          -0.0276923 -0.0276923 -0.066 -0.0215385 -0.0276923 -0.066 -0.0153846 -0.0276923 -0.066 -0.00923077 -0.0276923 -0.066
          -0.00307692 -0.0276923 -0.066 -0.04 -0.0215385 -0.066 -0.0338462 -0.0215385 -0.066 -0.0276923 -0.0215385 -0.066
          -0.0215385 -0.0215385 -0.066 -0.0153846 -0.0215385 -0.066 -0.00923077 -0.0215385 -0.066 -0.00307692 -0.0215385 -0.066
          -0.04 -0.0153846 -0.066 -0.0338462 -0.0153846 -0.066 -0.0276923 -0.0153846 -0.066 -0.0215385 -0.0153846 -0.066
          -0.0153846 -0.0153846 -0.066 -0.00923077 -0.0153846 -0.066 -0.00307692 -0.0153846 -0.066 -0.04 -0.00923077 -0.066
          -0.0338462 -0.00923077 -0.066 -0.0276923 -0.00923077 -0.066 -0.0215385 -0.00923077 -0.066 -0.0153846 -0.00923077 -0.066
          -0.00923077 -0.00923077 -0.066 -0.00307692 -0.00923077 -0.066 -0.04 -0.00307692 -0.066 -0.0338462 -0.00307692 -0.066
          -0.0276923 -0.00307692 -0.066 -0.0215385 -0.00307692 -0.066 -0.0153846 -0.00307692 -0.066 -0.00923077 -0.00307692 -0.066
          -0.00307692 -0.00307692 -0.066 -0.04 0.00307692 -0.066 -0.0338462 0.00307692 -0.066 -0.0276923 0.00307692 -0.066
          -0.0215385 0.00307692 -0.066 -0.0153846 0.00307692 -0.066 -0.00923077 0.00307692 -0.066 -0.00307692 0.00307692 -0.066