<?xml version="1.0"?>
<VTKFile type="UnstructuredGrid" version="0.1" byte_order="LittleEndian">
  <UnstructuredGrid>
    <Piece NumberOfCells="936" NumberOfPoints="1274">
      <CellData Scalars="p (Pa)">
        <DataArray type="Float32" Name="p (Pa)" NumberOfComponents="1" format="ascii">
          35222 35115.7 34916.9 34653.3 34365.2 34101.7 35203.1 35093.7 34888.5 34615.2 34314.8 34037.8
          35174.2 35060 34844.9 34556.6 34236.6 33937.9 35150 35031.7 34808.2 34506.9 34169.6 33850.8
          35146.3 35027 34801.6 34497.1 34155.1 33830.1 35174.7 35059.2 34841.3 34547.9 34219.9 33910.1
          35239.9 35132.8 34931.6 34662.9 34365.8 34089.1 35338.3 35243 35065.2 34830.2 34574.2 34340.2
          35458.9 35377.3 35226.1 35028.3 34816.3 34626.5 35586.2 35518 35392.6 35230.5 35059.4 34909.2
          35702.1 35645.6 35542.2 35410 35272.4 35153.7 35790.1 35742 35654.6 35543.6 35429.4 35332.3
          35837.5 35793.9 35714.7 35614.7 35512.5 35426.4 34963.9 34837.8 34600.9 34284.5 33936.2 33615.7
          34939.8 34809.1 34562.9 34231.9 33864.2 33521.7 34902.3 34764.7 34503.7 34149.7 33750.5 33371.2
          34869.5 34725.6 34451.6 34076.8 33648.2 33232.6 34860.3 34714.5 34436.3 34054.6 33615.8 33185.9
          34889 34747.3 34477.8 34109.7 33689.9 33282.9 34961.2 34829.6 34580.9 34244.9 33868 33511.4
          35072.8 34955.9 34736.6 34444.4 34123.3 33828.3 35211.6 35111.8 34926 34682 34419.5 34185.1
          35359.1 35276.2 35123.3 34925.2 34716.3 34534.4 35494.1 35425.9 35301.1 35141.3 34975.6 34834.3
          35596.9 35539.4 35434.7 35302 35166.2 35052.2 35652.3 35600.4 35506.2 35387.4 35266.8 35166.6
          34502.8 34335.1 34017.4 33587.9 33108.2 32661.8 34467.4 34292 33957.8 33501.4 32984.2 32493
          34411.5 34223.8 33863.2 33363.5 32783.3 32213 34359.9 34160.9 33776.1 33235.3 32593 31937.9
          34338.7 34135.1 33740.4 33183.3 32515.2 31820.2 34367.1 34168.4 33784.6 33247.1 32611.3 31964.2
          34452.8 34267.9 33913.7 33425.3 32863 32315.3 34591.4 34427.1 34115.4 33693.7 33222.7 32785.6
          34767.6 34627.8 34365.5 34017.3 33640 33304.7 34957.3 34842.3 34628.9 34350.9 34057.4 33805.4
          35132.4 35039 34867.3 34647.3 34420.1 34230 35266.2 35188.4 35046.7 34867.4 34685 34535.4
          35338.5 35268.9 35142.7 34984.1 34824.3 34694.5 33835 33600.1 33150.3 32531.7 31826.8 31160.1
          33780.6 33531.9 33051.5 32380.9 31599.1 30835.5 33693.7 33422.7 32892.7 32135.7 31219.8 30273.8
          33610.3 33318.3 32741.5 31900.2 30844.5 29682.5 33568.1 33266.3 32668.3 31790.4 30671.4 29392.2
          33594.1 33297.8 32713.9 31867.4 30813.2 29658.9 33699.2 33422 32881.7 32115.1 31198.7 30268.1
          33878.8 33631.8 33155.8 32496 31739.9 31028.4 34113.9 33904.3 33506 32967.8 32375.9 31853.5
          34371.2 34200.6 33881.2 33460.2 33013.6 32637.3 34610.8 34474.5 34222.7 33898 33563.1 33290
          34794.5 34683.1 34479.4 34221.2 33960.3 33751.8 34893.9 34795.4 34616.5 34391.8 34167.3 33989.8
          32959.9 32628 31983.3 31076.8 30017.2 28993.8 32877 32520.3 31819 30811.2 29592.5 28358.1
          32743 32346.2 31551.9 30371.1 28861.6 27196.5 32611.1 32176.2 31292.3 29938.3 28107.6 25867.7
          32536.3 32082.2 31156.9 29728.1 27751.7 25157.9 32555.4 32106.6 31199.3 29824.3 27994.2 25779.5
          32683.8 32260.3 31414.3 30165.3 28594.2 26910 32918.6 32537.9 31786.4 30704.2 29408.5 28163
          33236.7 32914.2 32288.3 31415.7 30427.2 29560.5 33592 33332.8 32839.6 32175.3 31459.5 30870.3
          33925.6 33722.6 33343.6 32848.4 32335.5 31929.2 34182.1 34019.7 33721.1 33340 32955.8 32658.2
          34320.8 34179.4 33921.6 33596.9 33274.4 33026.9 31886.4 31424.4 30511.2 29191.8 27598.5 26020.8
          31763.1 31258.3 30243 28728.3 26806.8 24773 31562.6 30987.6 29800.7 27939.9 25377.8 22308.1
          31362.4 30720.1 29366.5 27150.5 23831.3 19153 31241.2 30565.4 29139.2 26793.5 23191.8 17497.9
          31247.2 30573.8 29168.9 26920.4 23674 19232 31400.3 30755.4 29423.6 27346.1 24536 21308.3
          31702.9 31114 29907.8 28056.7 25643.5 23178.7 32131.4 31632.4 30631.5 29159.3 27384.7 25807.6
          32620.6 32225.6 31455 30376.7 29171.8 28196.5 33083.4 32781.6 32208.4 31441.4 30633.1 30011.8
          33439.5 33204.3 32767.3 32202 31629.5 31200.1 33631.7 33430.7 33061.5 32593.1 32128.3 31782.9
          30637.2 30013.9 28757.5 26882.7 24524.1 22114.5 30461.1 29767.3 28333.7 26091.5 23057.1 19655.8
          30173.2 29361.9 27620.8 24686.9 20185.1 14123 29884.2 28959.4 26915.1 23237.4 16781.3 5432.61
          29704.4 28726.8 26577 22756.8 16097.8 2952.59 29691.2 28708.7 26580.9 22945.3 17176.1 8212.12
          29868.1 28906.1 26829.6 23325.6 18021.6 11228.9 30249 29349 27399.3 24068.3 18874.9 12140.1
          30816.9 30053.4 28443.8 25858 22324.6 18846.4 31480.5 30887.2 29685.5 27897.5 25745.2 23965.6
          32111.8 31671.3 30813.3 29619.8 28312.1 27322.7 32596.3 32263.4 31634.6 30803.2 29946.8 29322.5
          32857 32578.1 32060.8 31395.6 30731.9 30253.5 29249.6 28446 26795.9 24248.9 20885.3 17289
          29010.2 28099.5 26164.3 22967.3 18245 12411 28618 27523.9 25069 20519.8 12230.8 -1909.02
          28225 26950.8 23960.5 17761.7 3051.03 -41611.6 27982.7 26634.8 23533.6 17492.8 5205.75 -23821
          27951.6 26584.1 23500.1 17823.9 7782.76 -9547.52 28154.8 26777.4 23637.5 17737 7033.02 -10325.6
          28623.9 27293.1 24178.8 17864 3785.19 -34081.7 29359.3 28228.1 25677.8 21000.5 12998.9 2116.54
          30236.2 29375 27542.1 24560 20469.6 16640 31071.9 30452.3 29204.2 27368.7 25211.4 23532.4
          31709.9 31256.5 30382 29187.8 27916.3 27000.9 32051.4 31679.8 30981 30065.3 29137.9 28485.3
          27766.1 26785.9 24753.7 21547.9 17134.1 12108.9 27457.7 26333.6 23905.3 19726.4 12968.2 3064.96
          26954.1 25576.8 22387.6 15922.7 1063.33 -42109.6 26456.4 24822.4 20779 10731.7 -32060.4 -475393
          26164.9 24434.1 20309.7 11500.6 -10982.7 -95559 26138.6 24362.6 20221.4 12045.7 -4399.56 -39026.5
          26391.6 24552.5 20131.7 10767.1 -11006 -69536.9 26969 25132.4 20448.7 8482.9 -41078.5 -533251
          27893.9 26323.3 22498.5 14168.5 -5986.9 -59825.3 29008.3 27833.9 25188.7 20369.5 12308.8 1940.95
          30067.1 29246.3 27529.4 24823.6 21288.5 18200.4 30869.1 30286.2 29135.6 27501.5 25672 24326.3
          31295.5 30827.5 29934.2 28736.5 27495.1 26630.7 26212.4 25074.7 22735.5 19094.8 14140.9 8415.19
          25828.7 24520.9 21740.9 17112.3 10010 59.3034 25210.5 23605.4 20001.3 13252.2 261.679 -26883.1
          24624.6 22718.5 18221.7 8721.02 -15542.4 -106216 24326.6 22279.2 17486.3 7780.63 -13697.5 -70780.8
          24373.4 22247.6 17266.4 7360.42 -12713.2 -54788.2 24751.1 22526 17074 5085.82 -24538.2 -114517
          25491.6 23239.4 17306.7 1128.43 -70681.5 -697948 26620.4 24657 19567.1 6378.26 -45737.3 -495349
          27967 26511.5 23068 16039 840.361 -35439.7 29233.5 28236.9 26083.3 22455.2 17081.1 11171.3
          30183.2 29490.9 28097 26044 23612.4 21712.4 30684.5 30137 29078.7 27630.3 26091.2 25014
          24586.1 23280 20642.4 16676.6 11500.7 5514.55 24096.7 22575.4 19423 14465.4 7472.43 -2099.34
          23322.7 21419.2 17288.6 10217.2 -1417.71 -24497.1 22648.1 20364 15158.6 5287.72 -14907.9 -89212.1
          22444.6 20034 14494.4 3758.16 -19486.5 -105047 22718.6 20282.1 14602.9 3384.19 -19875.5 -77467.7
          23369.2 20887.4 14835.7 1729.02 -29790.8 -132942 24373.5 21910.2 15518.4 -519.886 -50083.4 -232390
          25732.5 23572.5 17882.7 2464.92 -64540.8 -680077 27279.2 25683.8 21845.6 13709 -5227.54 -55231
          28700.4 27616.8 25246.3 21150.4 14804.6 7326.11 29751.9 29005.5 27490.6 25225.7 22479.8 20280.7
          30302.7 29715.8 28575.2 27000 25306.3 24115.6 22907.5 21368.2 18311.1 13922.7 8657.11 2763.5
          22246.6 20375.1 16552.3 10927.9 4295.59 -3913.44 21207.2 18705.2 13259.8 4612.27 -5101.2 -20365.5
          20394.6 17263.5 9850.21 -3867.8 -18221 -50768.3 20460.7 17423.8 10407.3 -2480.2 -23505 -74719.5
          21204.4 18413.3 11918.1 -830.604 -28082.2 -121799 22325 19685 13257.7 -869.472 -37338.5 -170715
          23709 21212.3 14706.1 -2746.89 -78380.2 -702741 25331.4 23215.3 17721 3173.56 -58623.5 -656563
          27031.5 25485.8 21818.9 14230.8 -2866.45 -47277.3 28533.3 27483 25208.2 21343.9 15491.3 8728.23
          29624.1 28897 27430.3 25259.2 22658.7 20584.6 30191 29616.5 28504.3 26976.6 25342.9 24190.3
        </DataArray>
        <DataArray type="Float32" Name="saturation" NumberOfComponents="1" format="ascii">
          0.299979 0.299867 0.29966 0.299386 0.299089 0.298819 0.299959 0.299844 0.29963 0.299346 0.299037 0.298753
          0.299928 0.299809 0.299585 0.299286 0.298957 0.298652 0.299903 0.299779 0.299546 0.299234 0.298888 0.298563
          0.299899 0.299774 0.29954 0.299224 0.298873 0.298542 0.299929 0.299808 0.299581 0.299277 0.298939 0.298623
          0.299997 0.299885 0.299675 0.299396 0.299089 0.298806 0.300101 0.300001 0.299814 0.299569 0.299304 0.299063
          0.300228 0.300142 0.299983 0.299776 0.299555 0.299358 0.300363 0.30029 0.300158 0.299988 0.299808 0.299651
          0.300486 0.300426 0.300316 0.300176 0.300031 0.299907 0.300579 0.300528 0.300435 0.300317 0.300197 0.300095
          0.30063 0.300583 0.300499 0.300393 0.300285 0.300194 0.299708 0.299577 0.299331 0.299006 0.29865 0.298325
          0.299683 0.299547 0.299292 0.298952 0.298577 0.29823 0.299644 0.299501 0.299231 0.298868 0.298461 0.298079
          0.29961 0.299461 0.299177 0.298793 0.298358 0.29794 0.299601 0.299449 0.299162 0.29877 0.298325 0.297893
          0.29963 0.299483 0.299204 0.298827 0.2984 0.29799 0.299706 0.299569 0.299311 0.298965 0.29858 0.29822
          0.299822 0.2997 0.299472 0.29917 0.298841 0.29854 0.299968 0.299863 0.299669 0.299415 0.299144 0.298904
          0.300123 0.300036 0.299875 0.299668 0.299451 0.299263 0.300265 0.300193 0.300062 0.299894 0.299721 0.299574
          0.300374 0.300313 0.300202 0.300063 0.29992 0.299801 0.300433 0.300378 0.300278 0.300153 0.300026 0.29992
          0.29923 0.299058 0.298733 0.298297 0.297816 0.297373 0.299194 0.299013 0.298672 0.29821 0.297692 0.297206
          0.299136 0.298943 0.298576 0.298071 0.297493 0.296932 0.299083 0.298879 0.298487 0.297943 0.297305 0.296664
          0.299061 0.298853 0.298451 0.297891 0.297228 0.29655 0.299091 0.298887 0.298496 0.297954 0.297323 0.29669
          0.299179 0.298989 0.298627 0.298133 0.297572 0.297032 0.299322 0.299152 0.298833 0.298404 0.29793 0.297495
          0.299504 0.299359 0.299089 0.298732 0.298349 0.298012 0.299702 0.299582 0.29936 0.299074 0.298773 0.298517
          0.299885 0.299787 0.299608 0.29938 0.299145 0.29895 0.300025 0.299943 0.299795 0.299608 0.299419 0.299264
          0.300101 0.300028 0.299895 0.29973 0.299563 0.299428 0.298547 0.298309 0.297858 0.297244 0.296557 0.295916
          0.298492 0.29824 0.297759 0.297096 0.296337 0.295608 0.298404 0.298131 0.297601 0.296857 0.295973 0.29508
          0.298319 0.298026 0.297451 0.296628 0.295617 0.294532 0.298277 0.297974 0.297379 0.296521 0.295453 0.294265
          0.298303 0.298005 0.297424 0.296596 0.295587 0.29451 0.298409 0.29813 0.29759 0.296837 0.295953 0.295075
          0.298591 0.298341 0.297863 0.297209 0.296473 0.295791 0.298831 0.298617 0.298214 0.297676 0.297091 0.296582
          0.299095 0.29892 0.298594 0.298168 0.297721 0.297349 0.299342 0.299201 0.298942 0.298611 0.298272 0.297997
          0.299532 0.299417 0.299206 0.298941 0.298674 0.298463 0.299636 0.299533 0.299348 0.299116 0.298886 0.298704
          0.297668 0.297339 0.296708 0.295837 0.294841 0.293902 0.297586 0.297233 0.296549 0.295585 0.294449 0.293329
          0.297453 0.297062 0.296291 0.295171 0.293782 0.292304 0.297323 0.296896 0.296042 0.294768 0.293106 0.291162
          0.297249 0.296805 0.295913 0.294574 0.292791 0.290565 0.297268 0.296828 0.295954 0.294663 0.293005 0.291087
          0.297394 0.296978 0.296159 0.294979 0.293541 0.292055 0.297627 0.297251 0.296517 0.295484 0.29428 0.293155
          0.297944 0.297623 0.297006 0.296161 0.295224 0.294419 0.298301 0.29804 0.297549 0.296895 0.296203 0.295641
          0.298639 0.298433 0.298051 0.297557 0.297052 0.296656 0.298901 0.298735 0.298431 0.298047 0.297664 0.297369
          0.299043 0.298898 0.298635 0.298306 0.297982 0.297735 0.296614 0.296169 0.295302 0.294082 0.292656 0.291292
          0.296495 0.29601 0.295051 0.293662 0.291965 0.290245 0.296302 0.295752 0.294641 0.292957 0.290749 0.288257
          0.29611 0.295499 0.294242 0.292264 0.289473 0.285854 0.295994 0.295353 0.294034 0.291954 0.288958 0.284652
          0.295999 0.295361 0.294061 0.292064 0.289346 0.285912 0.296146 0.295532 0.294294 0.292434 0.290049 0.287479
          0.296437 0.295872 0.29474 0.293061 0.290972 0.288947 0.296852 0.296369 0.295416 0.294052 0.292468 0.291111
          0.297332 0.296944 0.296198 0.295176 0.294064 0.293185 0.297791 0.297491 0.296928 0.296185 0.295417 0.294836
          0.298147 0.297912 0.297477 0.296921 0.296366 0.295954 0.298341 0.298139 0.297769 0.297305 0.296849 0.296514
          0.295421 0.294838 0.293688 0.292031 0.29004 0.288105 0.295255 0.29461 0.293308 0.291352 0.28885 0.286226
          0.294986 0.294237 0.292675 0.290174 0.286623 0.282316 0.294718 0.293871 0.292059 0.288994 0.284143 0.276922
          0.294552 0.293661 0.291767 0.288611 0.283665 0.275526 0.29454 0.293644 0.29177 0.288761 0.284422 0.278559
          0.294703 0.293822 0.291985 0.289065 0.285028 0.280427 0.295057 0.294226 0.292481 0.289666 0.285649 0.281011
          0.29559 0.294875 0.293406 0.291153 0.28827 0.285628 0.296223 0.295657 0.294534 0.292919 0.291058 0.289582
          0.296833 0.296406 0.295587 0.294474 0.293288 0.292414 0.297308 0.296981 0.296371 0.295577 0.294776 0.294201
          0.297566 0.29729 0.296784 0.296141 0.29551 0.295061 0.294135 0.293408 0.291956 0.289814 0.287154 0.284503
          0.293917 0.293099 0.291414 0.288779 0.285189 0.281186 0.293563 0.29259 0.290491 0.286876 0.281069 0.272946
          0.29321 0.29209 0.289578 0.284841 0.27558 0.257407 0.292995 0.291817 0.289233 0.284648 0.276792 0.263383
          0.292967 0.291773 0.289205 0.284885 0.278301 0.269267 0.293148 0.29194 0.289316 0.284823 0.277855 0.268915
          0.293568 0.292388 0.289756 0.284914 0.275988 0.259781 0.294235 0.293213 0.291001 0.287242 0.28157 0.275068
          0.295045 0.294249 0.292606 0.290069 0.286838 0.284044 0.295832 0.295247 0.294093 0.292454 0.29061 0.289232
          0.296444 0.296008 0.295181 0.294078 0.292936 0.292133 0.296775 0.296415 0.295746 0.294886 0.294033 0.293443
          0.292803 0.291947 0.290229 0.287664 0.284393 0.280991 0.292532 0.291558 0.289533 0.286279 0.28155 0.275588
          0.292093 0.290916 0.288319 0.283543 0.274499 0.257257 0.291663 0.290286 0.287073 0.280112 0.260455 0.216833
          0.291414 0.289966 0.286717 0.2806 0.268621 0.244856 0.291392 0.289907 0.28665 0.28095 0.2717 0.258199
          0.291608 0.290063 0.286583 0.280134 0.268611 0.250112 0.292106 0.290544 0.286822 0.278722 0.257569 0.215113
          0.292916 0.291549 0.288407 0.282347 0.27093 0.252417 0.293915 0.292863 0.290591 0.286762 0.28112 0.274972
          0.294888 0.294132 0.292595 0.290287 0.287463 0.285157 0.29564 0.295092 0.294031 0.29257 0.290996 0.289877
          0.296045 0.2956 0.294764 0.293669 0.292565 0.291813 0.291455 0.290496 0.288594 0.285811 0.282328 0.278681
          0.291129 0.290037 0.287813 0.284377 0.27966 0.273967 0.290609 0.28929 0.286485 0.281737 0.274073 0.262259
          0.290122 0.288581 0.285173 0.278867 0.266654 0.243015 0.289877 0.288234 0.284643 0.2783 0.267435 0.249831
          0.289916 0.288209 0.284487 0.278049 0.26786 0.253703 0.290227 0.288428 0.28435 0.276724 0.263116 0.241683
          0.290844 0.288996 0.284515 0.274534 0.249854 0.211349 0.291804 0.290149 0.28616 0.27747 0.25619 0.21621
          0.292981 0.291711 0.288859 0.283624 0.27438 0.259338 0.29412 0.293221 0.291345 0.288373 0.284355 0.28039
          0.294996 0.294356 0.293096 0.291311 0.289296 0.287791 0.295465 0.294953 0.293979 0.292684 0.291351 0.290445
          0.290091 0.289029 0.286969 0.284069 0.2806 0.27697 0.289689 0.288467 0.286053 0.282546 0.278116 0.272849
          0.289063 0.287564 0.284502 0.279789 0.273198 0.263131 0.288525 0.286758 0.283017 0.276839 0.266921 0.246031
          0.288364 0.286509 0.282566 0.275973 0.265051 0.24321 0.288581 0.286696 0.282639 0.275765 0.264897 0.24838
          0.2891 0.287156 0.282797 0.274857 0.261232 0.239001 0.289916 0.287945 0.283264 0.273663 0.254966 0.228834
          0.291047 0.289264 0.284928 0.275258 0.25127 0.211695 0.292376 0.291006 0.287895 0.28204 0.271296 0.253587
          0.293637 0.292672 0.290639 0.287357 0.282776 0.278029 0.294596 0.293913 0.292561 0.290621 0.288392 0.286695
          0.295107 0.294562 0.293524 0.292133 0.290689 0.289705 0.288731 0.287525 0.285237 0.282182 0.278828 0.275422
          0.288208 0.286766 0.283982 0.280236 0.276275 0.271939 0.287401 0.285525 0.281742 0.276454 0.271357 0.264705
          0.286781 0.284485 0.279561 0.271962 0.265556 0.254778 0.286831 0.284599 0.279908 0.272656 0.263501 0.248966
          0.287399 0.285312 0.280868 0.273501 0.261831 0.240581 0.28827 0.286248 0.281741 0.273481 0.258729 0.234438
          0.289374 0.287405 0.282709 0.272522 0.248189 0.211258 0.29071 0.288977 0.284811 0.275648 0.252718 0.212171
          0.29216 0.290839 0.287874 0.282388 0.272461 0.255749 0.293486 0.292554 0.290607 0.287506 0.283245 0.278871
          0.294478 0.293814 0.292508 0.290649 0.288533 0.286925 0.295003 0.294471 0.29346 0.292112 0.29072 0.289766
        </DataArray>
        <DataArray type="Float32" Name="process rank" NumberOfComponents="1" format="ascii">
          0 0 0 0 0 0 0 0 0 0 0 0
          0 0 0 0 0 0 0 0 0 0 0 0
          0 0 0 0 0 0 0 0 0 0 0 0
          0 0 0 0 0 0 0 0 0 0 0 0
          0 0 0 0 0 0 0 0 0 0 0 0
          0 0 0 0 0 0 0 0 0 0 0 0
          0 0 0 0 0 0 0 0 0 0 0 0
          0 0 0 0 0 0 0 0 0 0 0 0
          0 0 0 0 0 0 0 0 0 0 0 0
          0 0 0 0 0 0 0 0 0 0 0 0
          0 0 0 0 0 0 0 0 0 0 0 0
          0 0 0 0 0 0 0 0 0 0 0 0
          0 0 0 0 0 0 0 0 0 0 0 0
          0 0 0 0 0 0 0 0 0 0 0 0
          0 0 0 0 0 0 0 0 0 0 0 0
          0 0 0 0 0 0 0 0 0 0 0 0
          0 0 0 0 0 0 0 0 0 0 0 0
          0 0 0 0 0 0 0 0 0 0 0 0
          0 0 0 0 0 0 0 0 0 0 0 0
          0 0 0 0 0 0 0 0 0 0 0 0
          0 0 0 0 0 0 0 0 0 0 0 0
          0 0 0 0 0 0 0 0 0 0 0 0
          0 0 0 0 0 0 0 0 0 0 0 0
          0 0 0 0 0 0 0 0 0 0 0 0
          0 0 0 0 0 0 0 0 0 0 0 0
          0 0 0 0 0 0 0 0 0 0 0 0
          0 0 0 0 0 0 0 0 0 0 0 0
          0 0 0 0 0 0 0 0 0 0 0 0
          0 0 0 0 0 0 0 0 0 0 0 0
          0 0 0 0 0 0 0 0 0 0 0 0
          0 0 0 0 0 0 0 0 0 0 0 0
          0 0 0 0 0 0 0 0 0 0 0 0
          0 0 0 0 0 0 0 0 0 0 0 0
          0 0 0 0 0 0 0 0 0 0 0 0
          0 0 0 0 0 0 0 0 0 0 0 0
          0 0 0 0 0 0 0 0 0 0 0 0
          0 0 0 0 0 0 0 0 0 0 0 0
          0 0 0 0 0 0 0 0 0 0 0 0
          0 0 0 0 0 0 0 0 0 0 0 0
          0 0 0 0 0 0 0 0 0 0 0 0
          0 0 0 0 0 0 0 0 0 0 0 0
          0 0 0 0 0 0 0 0 0 0 0 0
          0 0 0 0 0 0 0 0 0 0 0 0
          0 0 0 0 0 0 0 0 0 0 0 0
          0 0 0 0 0 0 0 0 0 0 0 0
          0 0 0 0 0 0 0 0 0 0 0 0
          0 0 0 0 0 0 0 0 0 0 0 0
          0 0 0 0 0 0 0 0 0 0 0 0
          0 0 0 0 0 0 0 0 0 0 0 0
          0 0 0 0 0 0 0 0 0 0 0 0
          0 0 0 0 0 0 0 0 0 0 0 0
          0 0 0 0 0 0 0 0 0 0 0 0
          0 0 0 0 0 0 0 0 0 0 0 0
          0 0 0 0 0 0 0 0 0 0 0 0
          0 0 0 0 0 0 0 0 0 0 0 0
          0 0 0 0 0 0 0 0 0 0 0 0
          0 0 0 0 0 0 0 0 0 0 0 0
          0 0 0 0 0 0 0 0 0 0 0 0
          0 0 0 0 0 0 0 0 0 0 0 0
          0 0 0 0 0 0 0 0 0 0 0 0
          0 0 0 0 0 0 0 0 0 0 0 0
          0 0 0 0 0 0 0 0 0 0 0 0
          0 0 0 0 0 0 0 0 0 0 0 0
          0 0 0 0 0 0 0 0 0 0 0 0
          0 0 0 0 0 0 0 0 0 0 0 0
          0 0 0 0 0 0 0 0 0 0 0 0
          0 0 0 0 0 0 0 0 0 0 0 0
          0 0 0 0 0 0 0 0 0 0 0 0
          0 0 0 0 0 0 0 0 0 0 0 0
          0 0 0 0 0 0 0 0 0 0 0 0
          0 0 0 0 0 0 0 0 0 0 0 0
          0 0 0 0 0 0 0 0 0 0 0 0
          0 0 0 0 0 0 0 0 0 0 0 0
          0 0 0 0 0 0 0 0 0 0 0 0
          0 0 0 0 0 0 0 0 0 0 0 0
          0 0 0 0 0 0 0 0 0 0 0 0
          0 0 0 0 0 0 0 0 0 0 0 0
          0 0 0 0 0 0 0 0 0 0 0 0
        </DataArray>
      </CellData>
      <Points>
        <DataArray type="Float32" Name="Coordinates" NumberOfComponents="3" format="ascii">
          -0.04 -0.04 -0.15 -0.0338462 -0.04 -0.15 -0.04 -0.0338462 -0.15 -0.0338462 -0.0338462 -0.15
          -0.04 -0.04 -0.144 -0.0338462 -0.04 -0.144 -0.04 -0.0338462 -0.144 -0.0338462 -0.0338462 -0.144
          -0.0276923 -0.04 -0.15 -0.0276923 -0.0338462 -0.15 -0.0276923 -0.04 -0.144 -0.0276923 -0.0338462 -0.144
          -0.0215385 -0.04 -0.15 -0.0215385 -0.0338462 -0.15 -0.0215385 -0.04 -0.144 -0.0215385 -0.0338462 -0.144
          -0.0153846 -0.04 -0.15 -0.0153846 -0.0338462 -0.15 -0.0153846 -0.04 -0.144 -0.0153846 -0.0338462 -0.144
          -0.00923077 -0.04 -0.15 -0.00923077 -0.0338462 -0.15 -0.00923077 -0.04 -0.144 -0.00923077 -0.0338462 -0.144
          -0.00307692 -0.04 -0.15 -0.00307692 -0.0338462 -0.15 -0.00307692 -0.04 -0.144 -0.00307692 -0.0338462 -0.144
          -0.04 -0.0276923 -0.15 -0.0338462 -0.0276923 -0.15 -0.04 -0.0276923 -0.144 -0.0338462 -0.0276923 -0.144
          -0.0276923 -0.0276923 -0.15 -0.0276923 -0.0276923 -0.144 -0.0215385 -0.0276923 -0.15 -0.0215385 -0.0276923 -0.144
          -0.0153846 -0.0276923 -0.15 -0.0153846 -0.0276923 -0.144 -0.00923077 -0.0276923 -0.15 -0.00923077 -0.0276923 -0.144
          -0.00307692 -0.0276923 -0.15 -0.00307692 -0.0276923 -0.144 -0.04 -0.0215385 -0.15 -0.0338462 -0.0215385 -0.15
          -0.04 -0.0215385 -0.144 -0.0338462 -0.0215385 -0.144 -0.0276923 -0.0215385 -0.15 -0.0276923 -0.0215385 -0.144
          -0.0215385 -0.0215385 -0.15 -0.0215385 -0.0215385 -0.144 -0.0153846 -0.0215385 -0.15 -0.0153846 -0.0215385 -0.144
          -0.00923077 -0.0215385 -0.15 -0.00923077 -0.0215385 -0.144 -0.00307692 -0.0215385 -0.15 -0.00307692 -0.0215385 -0.144
          -0.04 -0.0153846 -0.15 -0.0338462 -0.0153846 -0.15 -0.04 -0.0153846 -0.144 -0.0338462 -0.0153846 -0.144
          -0.0276923 -0.0153846 -0.15 -0.0276923 -0.0153846 -0.144 -0.0215385 -0.0153846 -0.15 -0.0215385 -0.0153846 -0.144
          -0.0153846 -0.0153846 -0.15 -0.0153846 -0.0153846 -0.144 -0.00923077 -0.0153846 -0.15 -0.00923077 -0.0153846 -0.144
          -0.00307692 -0.0153846 -0.15 -0.00307692 -0.0153846 -0.144 -0.04 -0.00923077 -0.15 -0.0338462 -0.00923077 -0.15
          -0.04 -0.00923077 -0.144 -0.0338462 -0.00923077 -0.144 -0.0276923 -0.00923077 -0.15 -0.0276923 -0.00923077 -0.144
          -0.0215385 -0.00923077 -0.15 -0.0215385 -0.00923077 -0.144 -0.0153846 -0.00923077 -0.15 -0.0153846 -0.00923077 -0.144
          -0.00923077 -0.00923077 -0.15 -0.00923077 -0.00923077 -0.144 -0.00307692 -0.00923077 -0.15 -0.00307692 -0.00923077 -0.144
          -0.04 -0.00307692 -0.15 -0.0338462 -0.00307692 -0.15 -0.04 -0.00307692 -0.144 -0.0338462 -0.00307692 -0.144
          -0.0276923 -0.00307692 -0.15 -0.0276923 -0.00307692 -0.144 -0.0215385 -0.00307692 -0.15 -0.0215385 -0.00307692 -0.144
          -0.0153846 -0.00307692 -0.15 -0.0153846 -0.00307692 -0.144 -0.00923077 -0.00307692 -0.15 -0.00923077 -0.00307692 -0.144
          -0.00307692 -0.00307692 -0.15 -0.00307692 -0.00307692 -0.144 -0.04 0.00307692 -0.15 -0.0338462 0.00307692 -0.15
          -0.04 0.00307692 -0.144 -0.0338462 0.00307692 -0.144 -0.0276923 0.00307692 -0.15 -0.0276923 0.00307692 -0.144
          -0.0215385 0.00307692 -0.15 -0.0215385 0.00307692 -0.144 -0.0153846 0.00307692 -0.15 -0.0153846 0.00307692 -0.144
          -0.00923077 0.00307692 -0.15 -0.00923077 0.00307692 -0.144 -0.00307692 0.00307692 -0.15 -0.00307692 0.00307692 -0.144
          -0.04 0.00923077 -0.15 -0.0338462 0.00923077 -0.15 -0.04 0.00923077 -0.144 -0.0338462 0.00923077 -0.144
          -0.0276923 0.00923077 -0.15 -0.0276923 0.00923077 -0.144 -0.0215385 0.00923077 -0.15 -0.0215385 0.00923077 -0.144
          -0.0153846 0.00923077 -0.15 -0.0153846 0.00923077 -0.144 -0.00923077 0.00923077 -0.15 -0.00923077 0.00923077 -0.144
          -0.00307692 0.00923077 -0.15 -0.00307692 0.00923077 -0.144 -0.04 0.0153846 -0.15 -0.0338462 0.0153846 -0.15
          -0.04 0.0153846 -0.144 -0.0338462 0.0153846 -0.144 -0.0276923 0.0153846 -0.15 -0.0276923 0.0153846 -0.144
          -0.0215385 0.0153846 -0.15 -0.0215385 0.0153846 -0.144 -0.0153846 0.0153846 -0.15 -0.0153846 0.0153846 -0.144
          -0.00923077 0.0153846 -0.15 -0.00923077 0.0153846 -0.144 -0.00307692 0.0153846 -0.15 -0.00307692 0.0153846 -0.144
          -0.04 0.0215385 -0.15 -0.0338462 0.0215385 -0.15 -0.04 0.0215385 -0.144 -0.0338462 0.0215385 -0.144
          -0.0276923 0.0215385 -0.15 -0.0276923 0.0215385 -0.144 -0.0215385 0.0215385 -0.15 -0.0215385 0.0215385 -0.144
          -0.0153846 0.0215385 -0.15 -0.0153846 0.0215385 -0.144 -0.00923077 0.0215385 -0.15 -0.00923077 0.0215385 -0.144
          -0.00307692 0.0215385 -0.15 -0.00307692 0.0215385 -0.144 -0.04 0.0276923 -0.15 -0.0338462 0.0276923 -0.15
          -0.04 0.0276923 -0.144 -0.0338462 0.0276923 -0.144 -0.0276923 0.0276923 -0.15 -0.0276923 0.0276923 -0.144
          -0.0215385 0.0276923 -0.15 -0.0215385 0.0276923 -0.144 -0.0153846 0.0276923 -0.15 -0.0153846 0.0276923 -0.144
          -0.00923077 0.0276923 -0.15 -0.00923077 0.0276923 -0.144 -0.00307692 0.0276923 -0.15 -0.00307692 0.0276923 -0.144
          -0.04 0.0338462 -0.15 -0.0338462 0.0338462 -0.15 -0.04 0.0338462 -0.144 -0.0338462 0.0338462 -0.144
          -0.0276923 0.0338462 -0.15 -0.0276923 0.0338462 -0.144 -0.0215385 0.0338462 -0.15 -0.0215385 0.0338462 -0.144
          -0.0153846 0.0338462 -0.15 -0.0153846 0.0338462 -0.144 -0.00923077 0.0338462 -0.15 -0.00923077 0.0338462 -0.144
          -0.00307692 0.0338462 -0.15 -0.00307692 0.0338462 -0.144 -0.04 0.04 -0.15 -0.0338462 0.04 -0.15
          -0.04 0.04 -0.144 -0.0338462 0.04 -0.144 -0.0276923 0.04 -0.15 -0.0276923 0.04 -0.144
          -0.0215385 0.04 -0.15 -0.0215385 0.04 -0.144 -0.0153846 0.04 -0.15 -0.0153846 0.04 -0.144
          -0.00923077 0.04 -0.15 -0.00923077 0.04 -0.144 -0.00307692 0.04 -0.15 -0.00307692 0.04 -0.144
          -0.04 -0.04 -0.138 -0.0338462 -0.04 -0.138 -0.04 -0.0338462 -0.138 -0.0338462 -0.0338462 -0.138
          -0.0276923 -0.04 -0.138 -0.0276923 -0.0338462 -0.138 -0.0215385 -0.04 -0.138 -0.0215385 -0.0338462 -0.138
          -0.0153846 -0.04 -0.138 -0.0153846 -0.0338462 -0.138 -0.00923077 -0.04 -0.138 -0.00923077 -0.0338462 -0.138
          -0.00307692 -0.04 -0.138 -0.00307692 -0.0338462 -0.138 -0.04 -0.0276923 -0.138 -0.0338462 -0.0276923 -0.138
          -0.0276923 -0.0276923 -0.138 -0.0215385 -0.0276923 -0.138 -0.0153846 -0.0276923 -0.138 -0.00923077 -0.0276923 -0.138
          -0.00307692 -0.0276923 -0.138 -0.04 -0.0215385 -0.138 -0.0338462 -0.0215385 -0.138 -0.0276923 -0.0215385 -0.138
          -0.0215385 -0.0215385 -0.138 -0.0153846 -0.0215385 -0.138 -0.00923077 -0.0215385 -0.138 -0.00307692 -0.0215385 -0.138
          -0.04 -0.0153846 -0.138 -0.0338462 -0.0153846 -0.138 -0.0276923 -0.0153846 -0.138 -0.0215385 -0.0153846 -0.138
          -0.0153846 -0.0153846 -0.138 -0.00923077 -0.0153846 -0.138 -0.00307692 -0.0153846 -0.138 -0.04 -0.00923077 -0.138
          -0.0338462 -0.00923077 -0.138 -0.0276923 -0.00923077 -0.138 -0.0215385 -0.00923077 -0.138 -0.0153846 -0.00923077 -0.138
          -0.00923077 -0.00923077 -0.138 -0.00307692 -0.00923077 -0.138 -0.04 -0.00307692 -0.138 -0.0338462 -0.00307692 -0.138
          -0.0276923 -0.00307692 -0.138 -0.0215385 -0.00307692 -0.138 -0.0153846 -0.00307692 -0.138 -0.00923077 -0.00307692 -0.138
          -0.00307692 -0.00307692 -0.138 -0.04 0.00307692 -0.138 -0.0338462 0.00307692 -0.138 -0.0276923 0.00307692 -0.138
          -0.0215385 0.00307692 -0.138 -0.0153846 0.00307692 -0.138 -0.00923077 0.00307692 -0.138 -0.00307692 0.00307692 -0.138
          -0.04 0.00923077 -0.138 -0.0338462 0.00923077 -0.138 -0.0276923 0.00923077 -0.138 -0.0215385 0.00923077 -0.138
          -0.0153846 0.00923077 -0.138 -0.00923077 0.00923077 -0.138 -0.00307692 0.00923077 -0.138 -0.04 0.0153846 -0.138
          -0.0338462 0.0153846 -0.138 -0.0276923 0.0153846 -0.138 -0.0215385 0.0153846 -0.138 -0.0153846 0.0153846 -0.138
          -0.00923077 0.0153846 -0.138 -0.00307692 0.0153846 -0.138 -0.04 0.0215385 -0.138 -0.0338462 0.0215385 -0.138
          -0.0276923 0.0215385 -0.138 -0.0215385 0.0215385 -0.138 -0.0153846 0.0215385 -0.138 -0.00923077 0.0215385 -0.138
          -0.00307692 0.0215385 -0.138 -0.04 0.0276923 -0.138 -0.0338462 0.0276923 -0.138 -0.0276923 0.0276923 -0.138
          -0.0215385 0.0276923 -0.138 -0.0153846 0.0276923 -0.138 -0.00923077 0.0276923 -0.138 -0.00307692 0.0276923 -0.138
          -0.04 0.0338462 -0.138 -0.0338462 0.0338462 -0.138 -0.0276923 0.0338462 -0.138 -0.0215385 0.0338462 -0.138
          -0.0153846 0.0338462 -0.138 -0.00923077 0.0338462 -0.138 -0.00307692 0.0338462 -0.138 -0.04 0.04 -0.138
          -0.0338462 0.04 -0.138 -0.0276923 0.04 -0.138 -0.0215385 0.04 -0.138 -0.0153846 0.04 -0.138
          -0.00923077 0.04 -0.138 -0.00307692 0.04 -0.138 -0.04 -0.04 -0.132 -0.0338462 -0.04 -0.132
          -0.04 -0.0338462 -0.132 -0.0338462 -0.0338462 -0.132 -0.0276923 -0.04 -0.132 -0.0276923 -0.0338462 -0.132
          -0.0215385 -0.04 -0.132 -0.0215385 -0.0338462 -0.132 -0.0153846 -0.04 -0.132 -0.0153846 -0.0338462 -0.132
          -0.00923077 -0.04 -0.132 -0.00923077 -0.0338462 -0.132 -0.00307692 -0.04 -0.132 -0.00307692 -0.0338462 -0.132
          -0.04 -0.0276923 -0.132 -0.0338462 -0.0276923 -0.132 -0.0276923 -0.0276923 -0.132 -0.0215385 -0.0276923 -0.132
          -0.0153846 -0.0276923 -0.132 -0.00923077 -0.0276923 -0.132 -0.00307692 -0.0276923 -0.132 -0.04 -0.0215385 -0.132