<?xml version="1.0"?>
<VTKFile type="UnstructuredGrid" version="0.1" byte_order="LittleEndian">
  <UnstructuredGrid>
    <Piece NumberOfCells="1092" NumberOfPoints="1456">
      <CellData Scalars="p (Pa)">
        <DataArray type="Float32" Name="p (Pa)" NumberOfComponents="1" format="ascii">
          33910.9 33825.9 33851.5 33960.8 34106.1 34236.9 34313.1 33835.6 33744.9 33772.6 33889.3 34043.6
          34181.8 34262 33716.6 33616.1 33646.9 33775.7 33944.4 34094.2 34180.7 33611 33500 33533.2
          33672.6 33853.7 34013.5 34105.4 33583.2 33467 33499.1 33639.9 33822.9 33984.1 34076.9 33675.8
          33564.5 33591 33719.4 33888.9 34039.5 34126.6 33883 33785.5 33805.4 33913.3 34058.5 34189.2
          34265.3 34169.6 34090.2 34105.6 34192.2 34310.1 34417.3 34480.2 34491.3 34430.2 34443.4 34512
          34605.3 34690.3 34740.3 34804.8 34759.7 34772.3 34827.2 34900.6 34967.4 35006.6 35073.3 35040.5
          35053.1 35098.2 35157.3 35210.6 35241.8 35268.1 35243.6 35256.2 35295.2 35345 35389.5 35415.4
          35370.2 35349.8 35362.5 35398.5 35443.8 35484 35507.3 33384.3 33286.2 33328.6 33474.7 33662.3
          33828.1 33923.6 33271.1 33163.8 33211.3 33371.8 33575.4 33753.6 33855.8 33086.7 32962.1 33018.7
          33204 33434.3 33633 33745.9 32911.9 32766.5 32832.5 33042.8 33298.9 33516.5 33639.3 32848.3
          32690 32758.3 32976.6 33240 33463.1 33588.7 32967.3 32819.5 32874.7 33069.4 33310.6 33518
          33635.8 33243.1 33119.7 33159.8 33316.6 33517.3 33693.9 33795.7 33614.2 33519.1 33549.2 33670.2
          33828.2 33969.7 34052.1 34021 33951.6 33976.4 34069.5 34191.3 34300.9 34365.1 34411.1 34362.2
          34384.4 34457.3 34551.4 34635.8 34685.2 34741.3 34707.2 34727.9 34787 34861.5 34927.8 34966.4
          34979.1 34954.5 34974.3 35024.6 35086.7 35141.5 35173.2 35103.2 35083.2 35102.5 35148.6 35204.7
          35253.8 35282.2 32340.5 32215.1 32298.7 32530.1 32812.8 33055.5 33193.2 32130.7 31986.1 32085.2
          32351.2 32668.8 32937.1 33087.9 31772.7 31587.4 31717 32047.7 32427.6 32739.9 32912.9 31402.6
          31157.4 31327.6 31734.2 32180.8 32538.2 32733.3 31229.2 30934.9 31130.5 31573.9 32048.4 32424
          32628.3 31432 31177.1 31324 31701.8 32126.1 32472.8 32664.8 31892.8 31703.3 31800.4 32082.3
          32418.5 32705.5 32868.6 32471.6 32342.5 32411.4 32615.1 32867 33088.5 33216.8 33077.8 32993.8
          33048.5 33198.4 33384.9 33550.5 33647.1 33642.7 33589.1 33635.5 33749.7 33889.6 34013.2 34085.2
          34111.5 34077.3 34117.9 34208.3 34316.7 34411.4 34466.2 34444.6 34421.7 34458.3 34533.9 34622.8
          34699.6 34743.7 34617 34599.3 34633.8 34702.2 34781.7 34850 34889 30681 30512.6 30680.5
          31071.3 31522.8 31897.7 32106.4 30263.5 30051.8 30265.7 30741.6 31271.5 31700.1 31935.2 29506
          29183.8 29502.8 30155 30834.6 31360.8 31642.7 28632.2 28095.1 28596 29495.1 30356.2 30992.1
          31325 28127.6 27332.9 28026.6 29095.8 30055.6 30748.3 31108.9 28605.2 28033.2 28473 29308
          30134.5 30769 31110.4 29520.6 29179.3 29424.2 29977.8 30586.9 31095.8 31382.5 30530.9 30346.9
          30505.6 30871.9 31300.2 31675.5 31893.4 31523 31427.5 31548.1 31804.8 32108 32376.2 32533.4
          32413.8 32364.1 32461.9 32651.8 32872.4 33065.2 33177.6 33133.8 33107.4 33188.3 33335.2 33502.2
          33645.6 33728.3 33635.5 33620.7 33689.7 33809.9 33944.3 34058.1 34123.1 33892 33882.1 33944.9
          34052.2 34171.1 34271.1 34327.7 28260.3 28035.6 28367.2 29032.2 29756.2 30335.4 30651.3 27416
          27094.1 27558.9 28427.8 29320.6 30008.1 30375.1 25750.5 25106.4 25936.7 27284.3 28528.7 29425.5
          29888.2 23513.1 21943.3 23665.6 25850.4 27589.5 28749.5 29327.5 21842.3 18380.1 21778.4 24810.8
          26903 28236.3 28893.3 23399.1 21685.9 23220.8 25239.1 26936.8 28158.3 28796.1 25493.4 24783.5
          25423.7 26538 27660.5 28616.6 29155.7 27372.4 27131.3 27495.6 28154 28884.4 29550.4 29944
          29091.3 29026.3 29290.6 29731.1 30226.3 30675 30942.5 30572 30563.1 30767.2 31086 31436.9
          31744.4 31925.1 31727.9 31734.1 31892.9 32134.2 32394.1 32614.6 32741.6 32511.3 32520.6 32648.5
          32841.3 33046.4 33216.9 33313.5 32904.8 32914.6 33026.8 33196.1 33375.3 33522.8 33605.7 24904.1
          24631.6 25265.4 26368.9 27497.2 28366.4 28830.5 23213 22748.5 23747.7 25305.3 26771 27842.9
          28399.7 19483 18086 20345.8 23137.7 25377.8 26871.8 27613.2 13278.1 7245.87 14370.4 20010.8
          23552.2 25653.3 26645.4 6634.8 -21209.9 6800.07 17127.4 21953.6 24579.7 25793.8 13283.4 6488.36
          12937.4 18070.3 21696.2 24181.3 25436.9 18572.9 16935.4 18653.6 20787.2 22765.4 24749.8 25869.6
          22114 21981.5 22821 23930.4 25115.3 26377.5 27146.5 25258.9 25416.5 25998.8 26730.6 27516.1
          28290.4 28767 27852.1 28002.2 28426.1 28955.1 29504.5 29998.9 30295 29775.8 29878.2 30184.9
          30577.9 30977.5 31315 31510.4 31025.6 31093.8 31324.5 31630.1 31939.1 32191.4 32333.8 31636.8
          31689.3 31883.2 32146.1 32412.2 32626.7 32746.3 20467.1 20232.5 21376.5 23108.9 24777.3 26019.6
          26670.9 17163.9 16718.7 18752.6 21370.8 23640.8 25228 26033.5 8726.42 6166.41 12148.2 17531.9
          21322.7 23688.2 24823.2 -9921.68 -37240.3 -3035.74 10986.2 17890.6 21568 23218.7 -40605.8 -453189
          -39132.4 2525.67 14078.6 19340.3 21600.1 -6719.28 -39333.5 -8047.74 3784.1 12265 17929.1 20601.8
          6413.27 2830.57 7147.07 10176.8 12801.4 18198.8 20957.4 12465.4 13657.1 15589.5 17107.2 18724.3
          21491.3 23173.5 18858 19986.3 21289.7 22423.7 23592.5 25006.5 25903.6 23777 24428.4 25306.9
          26163.5 26999.3 27801.3 28293.2 27115.3 27461.8 28042.9 28670.4 29270.3 29779.8 30077 29141.3
          29335.7 29738.6 30211 30664.2 31028.7 31233.8 30092.2 30226.4 30548.2 30944.7 31328.4 31631.4
          31798.9 14960 15017 16883.3 19383.5 21683.9 23355.8 24221.3 8643.83 9342.7 12889.9 16811.3
          20046.6 22244.7 23342.2 -11660.1 -8785.22 2124.91 10675.5 16483.1 19972.9 21606.3 -80570.9 -85600.7
          -26244.7 -1894.13 10384 16503.1 19119.5 -120160 -693377 -110917 -27282.5 1152.32 12037 16229
          -37514.4 -90292.8 -44254.9 -40519 -8609.27 7591.6 13809.5 -15540.4 -17671.8 -12047.1 -14919.1 -22630.6
          4919.71 13500.9 -9946.56 -33.145 4369.99 5071.14 5704.26 13596.1 17700.7 6894.46 11735.8 14704.3
          16272.2 17825.5 20638.7 22383.6 17477.4 19547.8 21347.4 22693.9 23923.2 25231.6 26041.1 23560.2
          24461.5 25526.6 26498.6 27370.4 28119.4 28557.9 26869.4 27304.5 27976.3 28679.1 29318.6 29825.6
          30109.2 28330.6 28602.9 29108.8 29681.4 30211.7 30622 30846.8 8862.95 9433.24 12093.2 15371.7
          18315.4 20433 21523.8 -3088.95 1090.08 6582.68 11931.8 16181.3 19013.2 20414.5 -67874.5 -27715.4
          -10193.4 2872.6 11234.8 15987.4 18156.8 -687476 -149039 -79325.3 -23265.4 1208.69 10905.6 14713.2
          -699369 -700661 -693109 -168516 -21868.5 2904.47 10200 -112956 -151413 -140702 -400784 -65833.6
          -8818.97 5410.52 -64140.4 -51092 -48737.4 -102656 -333079 -29379.6 3002.63 -90914.9 -25822.1 -13528.8
          -18872.5 -28391 1355.88 11189.5 -19082.2 -925.202 5966.22 7850.19 9747.2 15578 18737.3 7506.63
          13230.5 16772.4 18825.3 20603.9 22663.5 23895.9 19036.9 21046.1 22879.2 24315.3 25528.9 26570.9
          27173.2 24358 25187.4 26230.1 27216.9 28071.8 28736.7 29104.7 26517.4 26987.6 27725.4 28502.5
          29194.3 29718.5 30002.5 4088.48 4396.04 7376.19 11157 14654.3 17216.7 18546.8 -9437.96 -5260.23
          1228.34 7314.71 12236.7 15598.8 17283.4 -79948.6 -37281.7 -15477.8 -2169.06 6711.21 12137.4 14695.3
          -695159 -156325 -58608.4 -23254.4 -3948.51 6289.89 10701.9 -256395 -702988 -184963 -75686.6 -26446.5
          -3228.04 5328.51 -129256 -202605 -164469 -213468 -98391.7 -20357.2 -797.542 -186144 -110139 -124903
          -684947 -672780 -57386.8 -4180.52 -672795 -88703.5 -39741.8 -71877.8 -58946 -6777.44 7042.7 -87578
          -19094.8 -3542.96 -1458.56 3679.82 12304.2 16396.8 -7455.18 6343.9 12566.1 15555.6 18223.1 20939.8
          22463.3 14110.1 17850.3 20640.6 22598.5 24188.3 25483.4 26207.5 22050.8 23371 24814.1 26085.1
          27145 27945 28379.5 24971.3 25656.3 26623.2 27591.9 28428.5 29049.1 29381.2 369.513 -450.815
          2108.08 6064.07 10233.7 13423.5 15094.7 -12951.1 -11280 -4799.8 1845.16 7637.73 11716.8 13775.6
          -81435.7 -49098.6 -23726.7 -8669.37 1688.44 8090.25 11109.2 -692034 -192283 -71612.8 -32564.2 -9613.84
          2169.91 7165.25 -714250 -705280 -215109 -112757 -33040.6 -6626.36 2387.73 -249254 -318318 -288343
          -702113 -99089.3 -18555.2 -1659.16 -706644 -205023 -161226 -684244 -107292 -19704.6 -464.387 -716562
          -112978 -48992.6 -69319.7 -22128.3 -34.8393 8230.23 -116549 -27427.1 -7089.11 -2129.32 6432.74 13100.7
          16372.8 -15104.3 2887.75 10722.4 14655.8 18019.4 20688.2 22120.9 11465.4 16166.4 19540.1 21878.8
          23717.4 25091 25830.7 20788.4 22384.3 24066.8 25520.1 26705.2 27570 28030.1 24112.1 24918.3
          26019.6 27103.9 28025.9 28698.5 29054.2 -2827.88 -5952.74 -5123.85 -1748.24 3917.15 8443.84 10778.4
          -13194 -18957 -13449.2 -6373.6 1250.62 6755.91 9495.58 -47035.7 -86801.7 -41024.4 -19385.2 -5217.61
          3156.2 6967.55 -156314 -701898 -147410 -51761.6 -17296.9 -2298.05 3588.72 -249723 -706296 -709742
          -146071 -37029.6 -8449.08 534.857 -708319 -955094 -713368 -658522 -75898.8 -13114.6 -308.591 -741917
          -221495 -134809 -113552 -32606 -5441.42 3726.63 -253061 -77298.9 -35688 -22748.9 -4620.21 6109.83
          10869.2 -93264 -22354.5 -3703.43 4036.01 10592.3 15217.7 17539.1 -11835 4036.3 11607.4 15886.4
          19080.1 21361.5 22552.6 12220.5 16494.8 19774.3 22160.9 23982.5 25275.6 25954.1 20978.3 22461.7
          24104.2 25560.3 26742.6 27589.1 28033.3 24154.7 24917.6 25997.4 27078 27998.6 28666 29016.7
        </DataArray>
        <DataArray type="Float32" Name="saturation" NumberOfComponents="1" format="ascii">
          0.298624 0.298538 0.298564 0.298675 0.298823 0.298957 0.299035 0.298548 0.298456 0.298484 0.298602 0.298759
          0.2989 0.298983 0.298427 0.298325 0.298356 0.298487 0.298658 0.298811 0.298899 0.29832 0.298208 0.298242
          0.298382 0.298566 0.298728 0.298822 0.298292 0.298175 0.298207 0.298349 0.298535 0.298699 0.298793 0.298386
          0.298273 0.2983 0.29843 0.298602 0.298755 0.298844 0.298596 0.298497 0.298517 0.298627 0.298774 0.298908
          0.298986 0.298888 0.298807 0.298822 0.298911 0.299032 0.299142 0.299207 0.299218 0.299155 0.299169 0.29924
          0.299336 0.299424 0.299476 0.299543 0.299496 0.299509 0.299566 0.299643 0.299712 0.299753 0.299823 0.299789
          0.299802 0.299849 0.299911 0.299967 0.299999 0.300027 0.300001 0.300015 0.300055 0.300108 0.300155 0.300182
          0.300134 0.300113 0.300126 0.300164 0.300212 0.300254 0.300279 0.298092 0.297994 0.298036 0.298183 0.298372
          0.29854 0.298637 0.297978 0.297871 0.297919 0.298079 0.298284 0.298464 0.298568 0.297794 0.29767 0.297726
          0.297911 0.298142 0.298342 0.298457 0.29762 0.297476 0.297542 0.297751 0.298006 0.298225 0.298349 0.297557
          0.297401 0.297468 0.297685 0.297947 0.298171 0.298298 0.297675 0.297529 0.297583 0.297777 0.298018 0.298226
          0.298345 0.29795 0.297827 0.297867 0.298024 0.298226 0.298404 0.298507 0.298323 0.298228 0.298258 0.29838
          0.29854 0.298684 0.298768 0.298736 0.298665 0.298691 0.298786 0.29891 0.299022 0.299088 0.299136 0.299085
          0.299108 0.299183 0.29928 0.299368 0.299419 0.299477 0.299442 0.299463 0.299524 0.299602 0.299671 0.299711
          0.299724 0.299699 0.299719 0.299772 0.299837 0.299894 0.299927 0.299854 0.299833 0.299853 0.299902 0.29996
          0.300012 0.300042 0.297057 0.296934 0.297016 0.297243 0.297522 0.297763 0.2979 0.296852 0.296711 0.296807
          0.297067 0.29738 0.297645 0.297795 0.296504 0.296326 0.29645 0.296771 0.297142 0.29745 0.297621 0.296148
          0.295914 0.296076 0.296467 0.296901 0.297251 0.297443 0.295982 0.295702 0.295888 0.296313 0.296772 0.297139
          0.29734 0.296176 0.295933 0.296073 0.296436 0.296847 0.297187 0.297376 0.29662 0.296437 0.296531 0.296805
          0.297133 0.297416 0.297577 0.297185 0.297059 0.297126 0.297327 0.297576 0.297796 0.297924 0.297785 0.297702
          0.297756 0.297906 0.298093 0.298259 0.298357 0.298352 0.298298 0.298345 0.29846 0.298602 0.298728 0.298802
          0.298829 0.298794 0.298835 0.298928 0.299039 0.299136 0.299193 0.29917 0.299147 0.299184 0.299262 0.299354
          0.299434 0.299479 0.299348 0.29933 0.299366 0.299436 0.299519 0.29959 0.29963 0.295462 0.295304 0.295462
          0.295832 0.296263 0.296625 0.296828 0.295071 0.294873 0.295073 0.295519 0.296023 0.296434 0.296662 0.294369
          0.294075 0.294366 0.294969 0.295607 0.296108 0.296379 0.293575 0.293095 0.293543 0.294359 0.295157 0.295756
          0.296074 0.293124 0.292423 0.293034 0.293995 0.294877 0.295526 0.295867 0.293551 0.29304 0.293432 0.294188
          0.29495 0.295545 0.295869 0.294383 0.294071 0.294294 0.294805 0.295374 0.295855 0.296129 0.295321 0.295149
          0.295297 0.295643 0.29605 0.29641 0.296621 0.296264 0.296172 0.296288 0.296535 0.29683 0.297092 0.297246
          0.297129 0.29708 0.297176 0.297363 0.297581 0.297773 0.297885 0.297841 0.297815 0.297896 0.298043 0.29821
          0.298355 0.298439 0.298345 0.29833 0.2984 0.298521 0.298658 0.298774 0.29884 0.298605 0.298595 0.298659
          0.298768 0.298889 0.298992 0.29905 0.293242 0.293042 0.293338 0.293937 0.2946 0.295138 0.295434 0.292495
          0.292214 0.292621 0.293392 0.2942 0.294833 0.295175 0.291062 0.290522 0.29122 0.29238 0.293482 0.294296
          0.294722 0.289216 0.287971 0.289339 0.291147 0.292648 0.293681 0.294206 0.287892 0.285287 0.287843 0.290276
          0.292048 0.293221 0.293811 0.289124 0.287771 0.288981 0.290633 0.292078 0.293151 0.293723 0.290846 0.290254
          0.290787 0.291734 0.29271 0.293561 0.294049 0.292457 0.292247 0.292565 0.293147 0.293803 0.29441 0.294773
          0.293991 0.293932 0.294172 0.294576 0.295036 0.295457 0.295709 0.29536 0.295351 0.295543 0.295846 0.296181
          0.296477 0.296652 0.296461 0.296467 0.296621 0.296855 0.297109 0.297326 0.297452 0.297224 0.297234 0.29736
          0.29755 0.297754 0.297924 0.298021 0.297613 0.297623 0.297735 0.297903 0.298083 0.298231 0.298315 0.290354
          0.290128 0.290655 0.291589 0.292567 0.293337 0.293754 0.288975 0.288605 0.289406 0.290688 0.291934 0.292871
          0.293367 0.286098 0.285074 0.286744 0.288915 0.290749 0.292021 0.292669 0.281754 0.277981 0.282482 0.286492
          0.289248 0.29098 0.291826 0.277621 0.264376 0.277718 0.284388 0.287979 0.290085 0.291099 0.281758 0.277535
          0.28153 0.285063 0.287779 0.289758 0.290798 0.285428 0.284252 0.285487 0.287079 0.288618 0.290226 0.291163
          0.288104 0.288001 0.288662 0.289554 0.290529 0.291596 0.29226 0.290649 0.290781 0.291273 0.291899 0.292583
          0.293269 0.293697 0.292879 0.293012 0.29339 0.293867 0.294368 0.294824 0.2951 0.294618 0.294712 0.294997
          0.295365 0.295743 0.296064 0.296251 0.295788 0.295853 0.296073 0.296367 0.296665 0.296911 0.29705 0.296373
          0.296424 0.296611 0.296867 0.297127 0.297338 0.297456 0.286836 0.286659 0.287531 0.288892 0.290249 0.29129
          0.291848 0.284414 0.284099 0.285559 0.287527 0.289319 0.290623 0.291302 0.27887 0.277347 0.281016 0.284676
          0.28749 0.289357 0.290287 0.269097 0.25876 0.272376 0.280273 0.284933 0.287679 0.288979 0.257713 0.217568
          0.258166 0.275291 0.282286 0.285992 0.287704 0.27058 0.258104 0.269957 0.275988 0.281092 0.284961 0.286938
          0.277491 0.275459 0.277923 0.279764 0.281441 0.285156 0.287209 0.281222 0.282005 0.283313 0.284374 0.285539
          0.28762 0.288943 0.285636 0.286474 0.287464 0.288348 0.28928 0.290439 0.291192 0.289429 0.289961 0.290689
          0.291413 0.292132 0.292834 0.293271 0.292233 0.292536 0.293048 0.29361 0.294154 0.294621 0.294897 0.294036
          0.294213 0.294583 0.295022 0.295446 0.295791 0.295987 0.294911 0.295036 0.295337 0.295712 0.296077 0.296368
          0.29653 0.282882 0.28292 0.284215 0.286024 0.287769 0.289089 0.289791 0.27882 0.279247 0.281499 0.284164
          0.286519 0.288207 0.289078 0.268321 0.269616 0.275072 0.280076 0.283934 0.286464 0.287709 0.247736 0.246728
          0.26249 0.272954 0.279893 0.283948 0.285829 0.240824 0.211436 0.242251 0.262116 0.274547 0.280944 0.283756
          0.258673 0.245827 0.256621 0.257739 0.269697 0.278187 0.282107 0.266655 0.265778 0.268151 0.266916 0.263831
          0.276629 0.281901 0.269086 0.273918 0.276317 0.276715 0.277079 0.281965 0.284797 0.277773 0.28075 0.282708
          0.283786 0.284887 0.286966 0.288316 0.284637 0.286146 0.287509 0.288561 0.289548 0.290626 0.291309 0.289254
          0.289988 0.290874 0.2917 0.292455 0.293116 0.293508 0.292019 0.292398 0.292989 0.293618 0.294198 0.294664
          0.294927 0.293305 0.293549 0.294006 0.294531 0.295022 0.295407 0.295619 0.278953 0.279303 0.28098 0.283163
          0.285241 0.28681 0.287645 0.27235 0.274514 0.27759 0.280876 0.283723 0.28575 0.286796 0.250491 0.261961
          0.268975 0.275482 0.28043 0.283588 0.285125 0.21155 0.236922 0.247992 0.263591 0.274577 0.280222 0.282714
          0.211322 0.211298 0.211442 0.234675 0.264122 0.275499 0.279778 0.241927 0.236633 0.237971 0.219508 0.250965
          0.2696 0.27691 0.251366 0.25469 0.255339 0.243613 0.222554 0.261375 0.275553 0.24571 0.262644 0.267507
          0.265295 0.261722 0.274656 0.280402 0.265211 0.273452 0.277231 0.278341 0.279497 0.283305 0.285548 0.278136
          0.281723 0.284137 0.285612 0.28694 0.288537 0.289526 0.285768 0.287277 0.288708 0.289868 0.290876 0.291762
          0.292283 0.289903 0.290589 0.29147 0.292321 0.293074 0.293669 0.294003 0.291716 0.292122 0.292767 0.293459
          0.294084 0.294565 0.294828 0.276158 0.276332 0.278058 0.280381 0.282674 0.284451 0.285409 0.269317 0.27128
          0.274588 0.278022 0.281073 0.283319 0.284499 0.247863 0.258747 0.266681 0.272814 0.277666 0.281009 0.282702
          0.211402 0.236049 0.252722 0.263595 0.271922 0.277419 0.280093 0.227081 0.211254 0.232972 0.248758 0.262417
          0.27228 0.276863 0.23951 0.231312 0.23512 0.230364 0.244352 0.264708 0.273519 0.232856 0.242375 0.240128
          0.2116 0.21184 0.253031 0.271807 0.21184 0.246128 0.257978 0.249587 0.252637 0.270553 0.277861 0.246344
          0.265206 0.272123 0.273177 0.275929 0.281117 0.283873 0.270233 0.27745 0.281287 0.283289 0.285174 0.287196
          0.288379 0.282307 0.284904 0.286968 0.288486 0.289764 0.290837 0.291451 0.288055 0.289102 0.290279 0.291346
          0.292259 0.292962 0.293349 0.290409 0.290983 0.291807 0.29265 0.293392 0.293952 0.294255 0.27413 0.273699
          0.275063 0.277287 0.279799 0.28185 0.282973 0.267757 0.268489 0.271504 0.27492 0.278214 0.280738 0.282084
          0.247559 0.255238 0.263418 0.269669 0.274836 0.278485 0.280351 0.211462 0.232264 0.249646 0.260286 0.269237
          0.275097 0.277933 0.211044 0.211211 0.230226 0.241959 0.260127 0.270624 0.275216 0.227582 0.223321 0.225022
          0.21127 0.244229 0.265422 0.273074 0.211185 0.231096 0.235485 0.211613 0.242838 0.264964 0.273692 0.211001
          0.241924 0.255268 0.250161 0.264023 0.273917 0.27857 0.24137 0.262064 0.270406 0.272834 0.277502 0.281637
          0.283856 0.266838 0.27549 0.280106 0.282675 0.285026 0.287004 0.28811 0.280577 0.283712 0.28614 0.287921
          0.289381 0.290509 0.29113 0.28708 0.288317 0.289665 0.290868 0.291878 0.292631 0.293037 0.289702 0.290365
          0.29129 0.292223 0.293033 0.293635 0.293957 0.272481 0.270946 0.271346 0.273029 0.276062 0.278699 0.280141
          0.267652 0.265261 0.267542 0.270745 0.2746 0.277692 0.279341 0.255818 0.246494 0.257585 0.265091 0.2713
          0.275638 0.277816 0.236051 0.211274 0.237122 0.254508 0.26593 0.272748 0.275879 0.227549 0.211192 0.211127
          0.237289 0.258827 0.269771 0.274218 0.211154 0.207445 0.21106 0.21213 0.248713 0.267686 0.273773 0.210548
          0.229697 0.238748 0.241834 0.260272 0.271192 0.275956 0.227313 0.248416 0.259257 0.263786 0.271591 0.277314
          0.280199 0.245274 0.263936 0.272043 0.276129 0.280024 0.283057 0.284681 0.268244 0.276129 0.280668 0.283518
          0.2858 0.28752 0.288449 0.281063 0.283942 0.286315 0.288141 0.289596 0.290663 0.291235 0.287225 0.288378
          0.289695 0.290902 0.29191 0.292647 0.29304 0.289737 0.290365 0.291272 0.2922 0.293009 0.293606 0.293923
        </DataArray>
        <DataArray type="Float32" Name="process rank" NumberOfComponents="1" format="ascii">
          1 1 1 1 1 1 1 1 1 1 1 1
          1 1 1 1 1 1 1 1 1 1 1 1
          1 1 1 1 1 1 1 1 1 1 1 1
          1 1 1 1 1 1 1 1 1 1 1 1
          1 1 1 1 1 1 1 1 1 1 1 1
          1 1 1 1 1 1 1 1 1 1 1 1
          1 1 1 1 1 1 1 1 1 1 1 1
          1 1 1 1 1 1 1 1 1 1 1 1
          1 1 1 1 1 1 1 1 1 1 1 1
          1 1 1 1 1 1 1 1 1 1 1 1
          1 1 1 1 1 1 1 1 1 1 1 1
          1 1 1 1 1 1 1 1 1 1 1 1
          1 1 1 1 1 1 1 1 1 1 1 1
          1 1 1 1 1 1 1 1 1 1 1 1
          1 1 1 1 1 1 1 1 1 1 1 1
          1 1 1 1 1 1 1 1 1 1 1 1
          1 1 1 1 1 1 1 1 1 1 1 1
          1 1 1 1 1 1 1 1 1 1 1 1
          1 1 1 1 1 1 1 1 1 1 1 1
          1 1 1 1 1 1 1 1 1 1 1 1
          1 1 1 1 1 1 1 1 1 1 1 1
          1 1 1 1 1 1 1 1 1 1 1 1
          1 1 1 1 1 1 1 1 1 1 1 1
          1 1 1 1 1 1 1 1 1 1 1 1
          1 1 1 1 1 1 1 1 1 1 1 1
          1 1 1 1 1 1 1 1 1 1 1 1
          1 1 1 1 1 1 1 1 1 1 1 1
          1 1 1 1 1 1 1 1 1 1 1 1
          1 1 1 1 1 1 1 1 1 1 1 1
          1 1 1 1 1 1 1 1 1 1 1 1
          1 1 1 1 1 1 1 1 1 1 1 1
          1 1 1 1 1 1 1 1 1 1 1 1
          1 1 1 1 1 1 1 1 1 1 1 1
          1 1 1 1 1 1 1 1 1 1 1 1
          1 1 1 1 1 1 1 1 1 1 1 1
          1 1 1 1 1 1 1 1 1 1 1 1
          1 1 1 1 1 1 1 1 1 1 1 1
          1 1 1 1 1 1 1 1 1 1 1 1
          1 1 1 1 1 1 1 1 1 1 1 1
          1 1 1 1 1 1 1 1 1 1 1 1
          1 1 1 1 1 1 1 1 1 1 1 1
          1 1 1 1 1 1 1 1 1 1 1 1
          1 1 1 1 1 1 1 1 1 1 1 1
          1 1 1 1 1 1 1 1 1 1 1 1
          1 1 1 1 1 1 1 1 1 1 1 1
          1 1 1 1 1 1 1 1 1 1 1 1
          1 1 1 1 1 1 1 1 1 1 1 1
          1 1 1 1 1 1 1 1 1 1 1 1
          1 1 1 1 1 1 1 1 1 1 1 1
          1 1 1 1 1 1 1 1 1 1 1 1
          1 1 1 1 1 1 1 1 1 1 1 1
          1 1 1 1 1 1 1 1 1 1 1 1
          1 1 1 1 1 1 1 1 1 1 1 1
          1 1 1 1 1 1 1 1 1 1 1 1
          1 1 1 1 1 1 1 1 1 1 1 1
          1 1 1 1 1 1 1 1 1 1 1 1
          1 1 1 1 1 1 1 1 1 1 1 1
          1 1 1 1 1 1 1 1 1 1 1 1
          1 1 1 1 1 1 1 1 1 1 1 1
          1 1 1 1 1 1 1 1 1 1 1 1
          1 1 1 1 1 1 1 1 1 1 1 1
          1 1 1 1 1 1 1 1 1 1 1 1
          1 1 1 1 1 1 1 1 1 1 1 1
          1 1 1 1 1 1 1 1 1 1 1 1
          1 1 1 1 1 1 1 1 1 1 1 1
          1 1 1 1 1 1 1 1 1 1 1 1
          1 1 1 1 1 1 1 1 1 1 1 1
          1 1 1 1 1 1 1 1 1 1 1 1
          1 1 1 1 1 1 1 1 1 1 1 1
          1 1 1 1 1 1 1 1 1 1 1 1
          1 1 1 1 1 1 1 1 1 1 1 1
          1 1 1 1 1 1 1 1 1 1 1 1
          1 1 1 1 1 1 1 1 1 1 1 1
          1 1 1 1 1 1 1 1 1 1 1 1
          1 1 1 1 1 1 1 1 1 1 1 1
          1 1 1 1 1 1 1 1 1 1 1 1
          1 1 1 1 1 1 1 1 1 1 1 1
          1 1 1 1 1 1 1 1 1 1 1 1
          1 1 1 1 1 1 1 1 1 1 1 1
          1 1 1 1 1 1 1 1 1 1 1 1
          1 1 1 1 1 1 1 1 1 1 1 1
          1 1 1 1 1 1 1 1 1 1 1 1
          1 1 1 1 1 1 1 1 1 1 1 1
          1 1 1 1 1 1 1 1 1 1 1 1
          1 1 1 1 1 1 1 1 1 1 1 1
          1 1 1 1 1 1 1 1 1 1 1 1
          1 1 1 1 1 1 1 1 1 1 1 1
          1 1 1 1 1 1 1 1 1 1 1 1
          1 1 1 1 1 1 1 1 1 1 1 1
          1 1 1 1 1 1 1 1 1 1 1 1
          1 1 1 1 1 1 1 1 1 1 1 1
        </DataArray>
      </CellData>
      <Points>
        <DataArray type="Float32" Name="Coordinates" NumberOfComponents="3" format="ascii">
          -0.00307692 -0.04 -0.15 0.00307692 -0.04 -0.15 -0.00307692 -0.0338462 -0.15 0.00307692 -0.0338462 -0.15
          -0.00307692 -0.04 -0.144 0.00307692 -0.04 -0.144 -0.00307692 -0.0338462 -0.144 0.00307692 -0.0338462 -0.144
          0.00923077 -0.04 -0.15 0.00923077 -0.0338462 -0.15 0.00923077 -0.04 -0.144 0.00923077 -0.0338462 -0.144
          0.0153846 -0.04 -0.15 0.0153846 -0.0338462 -0.15 0.0153846 -0.04 -0.144 0.0153846 -0.0338462 -0.144
          0.0215385 -0.04 -0.15 0.0215385 -0.0338462 -0.15 0.0215385 -0.04 -0.144 0.0215385 -0.0338462 -0.144
          0.0276923 -0.04 -0.15 0.0276923 -0.0338462 -0.15 0.0276923 -0.04 -0.144 0.0276923 -0.0338462 -0.144
          0.0338462 -0.04 -0.15 0.0338462 -0.0338462 -0.15 0.0338462 -0.04 -0.144 0.0338462 -0.0338462 -0.144
          0.04 -0.04 -0.15 0.04 -0.0338462 -0.15 0.04 -0.04 -0.144 0.04 -0.0338462 -0.144
          -0.00307692 -0.0276923 -0.15 0.00307692 -0.0276923 -0.15 -0.00307692 -0.0276923 -0.144 0.00307692 -0.0276923 -0.144
          0.00923077 -0.0276923 -0.15 0.00923077 -0.0276923 -0.144 0.0153846 -0.0276923 -0.15 0.0153846 -0.0276923 -0.144
          0.0215385 -0.0276923 -0.15 0.0215385 -0.0276923 -0.144 0.0276923 -0.0276923 -0.15 0.0276923 -0.0276923 -0.144
          0.0338462 -0.0276923 -0.15 0.0338462 -0.0276923 -0.144 0.04 -0.0276923 -0.15 0.04 -0.0276923 -0.144
          -0.00307692 -0.0215385 -0.15 0.00307692 -0.0215385 -0.15 -0.00307692 -0.0215385 -0.144 0.00307692 -0.0215385 -0.144
          0.00923077 -0.0215385 -0.15 0.00923077 -0.0215385 -0.144 0.0153846 -0.0215385 -0.15 0.0153846 -0.0215385 -0.144
          0.0215385 -0.0215385 -0.15 0.0215385 -0.0215385 -0.144 0.0276923 -0.0215385 -0.15 0.0276923 -0.0215385 -0.144
          0.0338462 -0.0215385 -0.15 0.0338462 -0.0215385 -0.144 0.04 -0.0215385 -0.15 0.04 -0.0215385 -0.144
          -0.00307692 -0.0153846 -0.15 0.00307692 -0.0153846 -0.15 -0.00307692 -0.0153846 -0.144 0.00307692 -0.0153846 -0.144
          0.00923077 -0.0153846 -0.15 0.00923077 -0.0153846 -0.144 0.0153846 -0.0153846 -0.15 0.0153846 -0.0153846 -0.144
          0.0215385 -0.0153846 -0.15 0.0215385 -0.0153846 -0.144 0.0276923 -0.0153846 -0.15 0.0276923 -0.0153846 -0.144
          0.0338462 -0.0153846 -0.15 0.0338462 -0.0153846 -0.144 0.04 -0.0153846 -0.15 0.04 -0.0153846 -0.144
          -0.00307692 -0.00923077 -0.15 0.00307692 -0.00923077 -0.15 -0.00307692 -0.00923077 -0.144 0.00307692 -0.00923077 -0.144
          0.00923077 -0.00923077 -0.15 0.00923077 -0.00923077 -0.144 0.0153846 -0.00923077 -0.15 0.0153846 -0.00923077 -0.144
          0.0215385 -0.00923077 -0.15 0.0215385 -0.00923077 -0.144 0.0276923 -0.00923077 -0.15 0.0276923 -0.00923077 -0.144
          0.0338462 -0.00923077 -0.15 0.0338462 -0.00923077 -0.144 0.04 -0.00923077 -0.15 0.04 -0.00923077 -0.144
          -0.00307692 -0.00307692 -0.15 0.00307692 -0.00307692 -0.15 -0.00307692 -0.00307692 -0.144 0.00307692 -0.00307692 -0.144
          0.00923077 -0.00307692 -0.15 0.00923077 -0.00307692 -0.144 0.0153846 -0.00307692 -0.15 0.0153846 -0.00307692 -0.144
          0.0215385 -0.00307692 -0.15 0.0215385 -0.00307692 -0.144 0.0276923 -0.00307692 -0.15 0.0276923 -0.00307692 -0.144
          0.0338462 -0.00307692 -0.15 0.0338462 -0.00307692 -0.144 0.04 -0.00307692 -0.15 0.04 -0.00307692 -0.144
          -0.00307692 0.00307692 -0.15 0.00307692 0.00307692 -0.15 -0.00307692 0.00307692 -0.144 0.00307692 0.00307692 -0.144
          0.00923077 0.00307692 -0.15 0.00923077 0.00307692 -0.144 0.0153846 0.00307692 -0.15 0.0153846 0.00307692 -0.144
          0.0215385 0.00307692 -0.15 0.0215385 0.00307692 -0.144 0.0276923 0.00307692 -0.15 0.0276923 0.00307692 -0.144
          0.0338462 0.00307692 -0.15 0.0338462 0.00307692 -0.144 0.04 0.00307692 -0.15 0.04 0.00307692 -0.144
          -0.00307692 0.00923077 -0.15 0.00307692 0.00923077 -0.15 -0.00307692 0.00923077 -0.144 0.00307692 0.00923077 -0.144
          0.00923077 0.00923077 -0.15 0.00923077 0.00923077 -0.144 0.0153846 0.00923077 -0.15 0.0153846 0.00923077 -0.144
          0.0215385 0.00923077 -0.15 0.0215385 0.00923077 -0.144 0.0276923 0.00923077 -0.15 0.0276923 0.00923077 -0.144
          0.0338462 0.00923077 -0.15 0.0338462 0.00923077 -0.144 0.04 0.00923077 -0.15 0.04 0.00923077 -0.144
          -0.00307692 0.0153846 -0.15 0.00307692 0.0153846 -0.15 -0.00307692 0.0153846 -0.144 0.00307692 0.0153846 -0.144
          0.00923077 0.0153846 -0.15 0.00923077 0.0153846 -0.144 0.0153846 0.0153846 -0.15 0.0153846 0.0153846 -0.144
          0.0215385 0.0153846 -0.15 0.0215385 0.0153846 -0.144 0.0276923 0.0153846 -0.15 0.0276923 0.0153846 -0.144
          0.0338462 0.0153846 -0.15 0.0338462 0.0153846 -0.144 0.04 0.0153846 -0.15 0.04 0.0153846 -0.144
          -0.00307692 0.0215385 -0.15 0.00307692 0.0215385 -0.15 -0.00307692 0.0215385 -0.144 0.00307692 0.0215385 -0.144
          0.00923077 0.0215385 -0.15 0.00923077 0.0215385 -0.144 0.0153846 0.0215385 -0.15 0.0153846 0.0215385 -0.144
          0.0215385 0.0215385 -0.15 0.0215385 0.0215385 -0.144 0.0276923 0.0215385 -0.15 0.0276923 0.0215385 -0.144
          0.0338462 0.0215385 -0.15 0.0338462 0.0215385 -0.144 0.04 0.0215385 -0.15 0.04 0.0215385 -0.144
          -0.00307692 0.0276923 -0.15 0.00307692 0.0276923 -0.15 -0.00307692 0.0276923 -0.144 0.00307692 0.0276923 -0.144
          0.00923077 0.0276923 -0.15 0.00923077 0.0276923 -0.144 0.0153846 0.0276923 -0.15 0.0153846 0.0276923 -0.144
          0.0215385 0.0276923 -0.15 0.0215385 0.0276923 -0.144 0.0276923 0.0276923 -0.15 0.0276923 0.0276923 -0.144
          0.0338462 0.0276923 -0.15 0.0338462 0.0276923 -0.144 0.04 0.0276923 -0.15 0.04 0.0276923 -0.144
          -0.00307692 0.0338462 -0.15 0.00307692 0.0338462 -0.15 -0.00307692 0.0338462 -0.144 0.00307692 0.0338462 -0.144
          0.00923077 0.0338462 -0.15 0.00923077 0.0338462 -0.144 0.0153846 0.0338462 -0.15 0.0153846 0.0338462 -0.144
          0.0215385 0.0338462 -0.15 0.0215385 0.0338462 -0.144 0.0276923 0.0338462 -0.15 0.0276923 0.0338462 -0.144