<?xml version="1.0"?>
<VTKFile type="UnstructuredGrid" version="0.1" byte_order="LittleEndian">
  <UnstructuredGrid>
    <Piece NumberOfCells="3800" NumberOfPoints="4620">
      <CellData Scalars="p (Pa)">
        <DataArray type="Float32" Name="p (Pa)" NumberOfComponents="1" format="ascii">
          -415700 -417132 -418310 -419226 -419898 -420358 -420650 -420820 -420908 -420944 -415612 -417043
          -418216 -419126 -419788 -420239 -420522 -420684 -420766 -420799 -415416 -416844 -418009 -418905
          -419551 -419984 -420250 -420397 -420469 -420496 -415075 -416498 -417651 -418528 -419152 -419561
          -419804 -419933 -419991 -420012 -414543 -415956 -417093 -417948 -418547 -418930 -419150 -419259
          -419303 -419316 -413774 -415170 -416286 -417118 -417692 -418051 -418249 -418341 -418373 -418380
          -412729 -414101 -415192 -416001 -416552 -416892 -417074 -417153 -417177 -417180 -411393 -412729
          -413791 -414577 -415111 -415439 -415612 -415686 -415706 -415707 -409772 -411064 -412093 -412856
          -413377 -413699 -413872 -413947 -413969 -413972 -407904 -409143 -410133 -410874 -411386 -411707
          -411885 -411968 -411997 -412004 -405845 -407025 -407974 -408691 -409195 -409520 -409708 -409802
          -409842 -409854 -403672 -404788 -405693 -406386 -406883 -407212 -407412 -407520 -407571 -407590
          -401465 -402518 -403379 -404047 -404536 -404870 -405081 -405203 -405266 -405292 -399311 -400302
          -401121 -401765 -402245 -402582 -402804 -402940 -403013 -403045 -397293 -398227 -399006 -399627
          -400098 -400438 -400669 -400815 -400899 -400936 -395485 -396370 -397114 -397715 -398178 -398518
          -398756 -398911 -399002 -399044 -393956 -394800 -395515 -396097 -396553 -396893 -397136 -397298
          -397396 -397442 -392759 -393571 -394264 -394833 -395282 -395623 -395869 -396036 -396138 -396186
          -391937 -392728 -393405 -393965 -394410 -394750 -394999 -395169 -395274 -395324 -391518 -392299
          -392969 -393524 -393967 -394307 -394556 -394728 -394834 -394885 -417757 -419226 -420418 -421329
          -421979 -422407 -422665 -422803 -422867 -422890 -417691 -419160 -420348 -421249 -421888 -422305
          -422550 -422679 -422735 -422755 -417535 -419003 -420182 -421067 -421685 -422078 -422303 -422412
          -422456 -422469 -417246 -418710 -419875 -420739 -421328 -421692 -421888 -421974 -422001 -422005
          -416765 -418222 -419369 -420207 -420766 -421097 -421263 -421325 -421334 -421329 -416033 -417475
          -418601 -419413 -419942 -420244 -420384 -420424 -420418 -420405 -415002 -416420 -417521 -418307
          -418812 -419093 -419214 -419240 -419224 -419206 -413647 -415030 -416101 -416864 -417353 -417622
          -417735 -417756 -417737 -417717 -411976 -413311 -414349 -415092 -415571 -415838 -415954 -415978
          -415964 -415947 -410029 -411307 -412306 -413029 -413503 -413776 -413903 -413940 -413936 -413924
          -407871 -409084 -410042 -410744 -411216 -411499 -411643 -411697 -411707 -411703 -405586 -406730
          -407643 -408324 -408793 -409088 -409250 -409324 -409350 -409355 -403264 -404340 -405206 -405864
          -406330 -406635 -406816 -406910 -406952 -406966 -400997 -402007 -402829 -403464 -403926 -404239
          -404436 -404548 -404604 -404627 -398873 -399822 -400604 -401217 -401673 -401992 -402202 -402330
          -402399 -402429 -396972 -397869 -398614 -399207 -399657 -399981 -400202 -400342 -400421 -400457
          -395364 -396217 -396933 -397510 -397954 -398281 -398509 -398658 -398746 -398786 -394106 -394926
          -395619 -396183 -396623 -396951 -397185 -397341 -397434 -397478 -393243 -394041 -394718 -395273
          -395709 -396039 -396276 -396436 -396534 -396580 -392804 -393590 -394260 -394810 -395245 -395575
          -395814 -395976 -396076 -396123 -421881 -423426 -424646 -425541 -426142 -426502 -426686 -426756
          -426770 -426766 -421865 -423412 -424626 -425509 -426093 -426435 -426601 -426657 -426660 -426650
          -421803 -423352 -424555 -425414 -425967 -426275 -426408 -426437 -426420 -426401 -421631 -423182
          -424369 -425196 -425708 -425971 -426062 -426056 -426015 -425983 -421269 -422818 -423984 -424777
          -425243 -425458 -425505 -425463 -425396 -425351 -420629 -422168 -423310 -424068 -424494 -424667
          -424676 -424602 -424514 -424457 -419634 -421151 -422267 -422996 -423392 -423537 -423522 -423429
          -423326 -423263 -418243 -419722 -420810 -421517 -421899 -422034 -422012 -421914 -421809 -421744
          -416462 -417889 -418943 -419635 -420015 -420158 -420147 -420060 -419964 -419903 -414343 -415703
          -416719 -417399 -417787 -417950 -417963 -417900 -417821 -417770 -411971 -413255 -414226 -414893
          -415292 -415482 -415528 -415496 -415441 -415402 -409447 -410650 -411574 -412226 -412635 -412852
          -412933 -412934 -412905 -412881 -406880 -408002 -408878 -409511 -409928 -410169 -410282 -410316
          -410313 -410302 -404375 -405421 -406248 -406862 -407283 -407544 -407686 -407749 -407769 -407771
          -402029 -403006 -403791 -404385 -404807 -405084 -405250 -405337 -405376 -405390 -399932 -400851
          -401597 -402174 -402596 -402884 -403068 -403175 -403230 -403252 -398160 -399031 -399747 -400309
          -400729 -401026 -401223 -401345 -401412 -401442 -396776 -397610 -398303 -398854 -399272 -399575
          -399782 -399914 -399991 -400025 -395826 -396636 -397313 -397856 -398274 -398580 -398793 -398932
          -399015 -399052 -395343 -396141 -396811 -397350 -397766 -398074 -398291 -398433 -398518 -398558
          -428169 -429831 -431089 -431952 -432467 -432711 -432770 -432729 -432659 -432611 -428246 -429914
          -431163 -432006 -432494 -432707 -432738 -432674 -432587 -432530 -428355 -430032 -431265 -432070
          -432505 -432663 -432641 -432533 -432416 -432344 -428406 -430094 -431305 -432058 -432425 -432508
          -432417 -432253 -432096 -432004 -428274 -429971 -431156 -431851 -432143 -432147 -431984 -431761
          -431563 -431450 -427815 -429514 -430670 -431314 -431540 -431476 -431251 -430978 -430745 -430614
          -426902 -428584 -429713 -430319 -430503 -430398 -430136 -429833 -429580 -429437 -425456 -427100
          -428201 -428789 -428963 -428852 -428586 -428280 -428024 -427881 -423486 -425065 -426135 -426723
          -426915 -426831 -426593 -426310 -426071 -425936 -421070 -422565 -423597 -424190 -424418 -424383
          -424196 -423958 -423750 -423631 -418331 -419728 -420715 -421312 -421579 -421603 -421479 -421296
          -421129 -421032 -415407 -416701 -417637 -418231 -418533 -418614 -418555 -418431 -418308 -418234
          -412434 -413626 -414508 -415094 -415424 -415555 -415554 -415486 -415406 -415355 -409538 -410636
          -411466 -412039 -412388 -412561 -412610 -412590 -412548 -412517 -406832 -407848 -408631 -409190
          -409553 -409757 -409848 -409868 -409857 -409844 -404417 -405365 -406108 -406655 -407026 -407255
          -407378 -407430 -407445 -407446 -402381 -403274 -403986 -404521 -404899 -405146 -405292 -405369
          -405403 -405415 -400792 -401645 -402333 -402861 -403243 -403502 -403666 -403760 -403808 -403828
          -399704 -400531 -401203 -401725 -402110 -402377 -402552 -402657 -402715 -402739 -399151 -399965
          -400629 -401149 -401534 -401806 -401986 -402097 -402159 -402186 -436766 -438590 -439891 -440692
          -441068 -441130 -440999 -440790 -440596 -440482 -437002 -438837 -440125 -440890 -441218 -441229
          -441050 -440803 -440582 -440454 -437409 -439266 -440527 -441225 -441462 -441375 -441108 -440789
          -440518 -440366 -437856 -439744 -440968 -441574 -441687 -441471 -441086 -440673 -440337 -440151
          -438147 -440069 -441251 -441753 -441731 -441374 -440864 -440350 -439946 -439725 -438041 -439989
          -441131 -441539 -441398 -440921 -440303 -439705 -439242 -438992 -437301 -439250 -440359 -440711
          -440501 -439954 -439276 -438627 -438129 -437861 -435780 -437687 -438776 -439121 -438912 -438368
          -437690 -437039 -436538 -436268 -433493 -435314 -436383 -436762 -436614 -436138 -435519 -434914
          -434443 -434187 -430587 -432288 -433328 -433753 -433698 -433330 -432812 -432288 -431872 -431643
          -427260 -428824 -429818 -430284 -430325 -430076 -429676 -429251 -428906 -428714 -423712 -425132
          -426071 -426561 -426684 -426547 -426263 -425941 -425670 -425518 -420118 -421402 -422281 -422781
          -422967 -422924 -422744 -422516 -422316 -422202 -416633 -417796 -418616 -419116 -419349 -419382
          -419288 -419141 -419003 -418922 -413389 -414451 -415219 -415716 -415983 -416075 -416050 -415969
          -415883 -415829 -410506 -411485 -412212 -412705 -412997 -413134 -413163 -413134 -413088 -413056
          -408080 -408997 -409693 -410182 -410494 -410663 -410733 -410743 -410728 -410713 -406193 -407065
          -407738 -408225 -408550 -408744 -408843 -408880 -408887 -408884 -404902 -405745 -406405 -406890
          -407224 -407434 -407551 -407607 -407627 -407632 -404247 -405076 -405729 -406214 -406552 -406770
          -406896 -406960 -406988 -406996 -447856 -449891 -451233 -451923 -452082 -451873 -451467 -451017
          -450647 -450441 -448356 -450413 -451729 -452355 -452430 -452133 -451647 -451134 -450720 -450492
          -449270 -451371 -452638 -453140 -453050 -452583 -451945 -451313 -450818 -450549 -450413 -452582
          -453779 -454104 -453784 -453084 -452243 -451451 -450848 -450525 -451483 -453739 -454856 -454972
          -454390 -453430 -452365 -451401 -450683 -450301 -452063 -454407 -455447 -455371 -454552 -453364
          -452105 -450991 -450172 -449740 -451691 -454083 -455077 -454891 -453940 -452624 -451254 -450052
          -449171 -448706 -450057 -452403 -453398 -453239 -452317 -451020 -449658 -448453 -447565 -447095
          -447220 -449430 -450443 -450408 -449647 -448502 -447260 -446139 -445300 -444854 -443492 -445510
          -446521 -446632 -446089 -445168 -444118 -443142 -442399 -441998 -439229 -441030 -442006 -442237
          -441903 -441217 -440384 -439582 -438959 -438620 -434728 -436315 -437231 -437539 -437374 -436896
          -436269 -435643 -435145 -434871 -430216 -431609 -432454 -432807 -432767 -432457 -432008 -431540
          -431160 -430948 -425874 -427104 -427884 -428260 -428311 -428133 -427827 -427492 -427213 -427056
          -421859 -422960 -423686 -424077 -424195 -424117 -423925 -423696 -423499 -423386 -418306 -419310
          -419996 -420398 -420567 -420566 -420461 -420314 -420181 -420103 -415330 -416263 -416922 -417334
          -417543 -417600 -417559 -417474 -417388 -417337 -413022 -413907 -414548 -414969 -415207 -415306
          -415312 -415270 -415218 -415184 -411448 -412302 -412933 -413362 -413619 -413744 -413780 -413766
          -413736 -413714 -410651 -411490 -412117 -412549 -412816 -412955 -413005 -413005 -412985 -412969
          -461648 -463948 -465313 -465820 -465657 -465060 -464269 -463488 -462879 -462548 -462578 -464916
          -466231 -466623 -466310 -465562 -464638 -463755 -463076 -462711 -464340 -466759 -467977 -468132
          -467521 -466477 -465297 -464218 -463408 -462977 -466700 -469259 -470330 -470131 -469084 -467619
          -466086 -464739 -463752 -463233 -469217 -471985 -472871 -472224 -470648 -468693 -466759 -465114
          -463931 -463315 -471169 -474196 -474891 -473790 -471707 -469300 -467005 -465093 -463735 -463031
          -471601 -474827 -475408 -474039 -471665 -469000 -466493 -464417 -462946 -462184 -469755 -472914
          -473579 -472333 -470057 -467447 -464957 -462872 -461381 -460604 -465873 -468756 -469568 -468697
          -466822 -464543 -462288 -460349 -458936 -458193 -460708 -463224 -464124 -463648 -462267 -460447
          -458554 -456871 -455615 -454946 -454932 -457069 -457968 -457787 -456843 -455474 -453975 -452593
          -451540 -450971 -448982 -450772 -451609 -451611 -450995 -450002 -448860 -447776 -446933 -446474
          -443127 -444627 -445381 -445486 -445099 -444396 -443550 -442727 -442079 -441723 -437561 -438836
          -439516 -439683 -439458 -438971 -438359 -437751 -437266 -436999 -432454 -433566 -434194 -434407
          -434300 -433977 -433545 -433105 -432751 -432554 -427962 -428963 -429560 -429813 -429798 -429599
          -429303 -428992 -428737 -428595 -424220 -425147 -425730 -426018 -426074 -425970 -425776 -425558
          -425377 -425274 -421331 -422211 -422789 -423106 -423217 -423180 -423059 -422908 -422777 -422702
          -419369 -420220 -420798 -421136 -421283 -421291 -421216 -421108 -421009 -420952 -418377 -419215
          -419793 -420143 -420307 -420338 -420285 -420198 -420115 -420066 -478345 -480964 -482318 -482541
          -481917 -480788 -479479 -478262 -477340 -476847 -479954 -482633 -483890 -483904 -483022 -481640
          -480117 -478738 -477708 -477162 -483102 -485922 -486978 -486547 -485130 -483241 -481296 -479602
          -478366 -477717 -487570 -490668 -491396 -490244 -488002 -485361 -482813 -480678 -479156 -478367
          -492809 -496410 -496661 -494494 -491168 -487600 -484338 -481694 -479846 -478898 -497625 -502012
          -501655 -498309 -493839 -489356 -485418 -482297 -480144 -479046 -499929 -505114 -504272 -500120
          -494930 -489889 -485530 -482098 -479733 -478526 -497548 -502508 -502094 -498386 -493468 -488554
          -484219 -480748 -478324 -477077 -491457 -495643 -495867 -493269 -489347 -485151 -481267 -478039
          -475726 -474520 -483629 -486983 -487586 -486017 -483216 -479957 -476751 -473960 -471898 -470804
          -475357 -477972 -478675 -477792 -475888 -473485 -470981 -468707 -466980 -466049 -467212 -469221
          -469865 -469365 -468071 -466327 -464432 -462661 -461289 -460541 -459414 -460967 -461507 -461211
          -460310 -459043 -457630 -456290 -455242 -454668 -452106 -453348 -453809 -453636 -453001 -452077
          -451032 -450036 -449255 -448826 -445459 -446506 -446931 -446856 -446416 -445747 -444980 -444247
          -443673 -443357 -439655 -440590 -441014 -441027 -440741 -440265 -439707 -439170 -438749 -438518
          -434853 -435725 -436167 -436261 -436097 -435768 -435365 -434970 -434660 -434489 -431169 -432008
          -432474 -432633 -432561 -432340 -432046 -431752 -431517 -431387 -428679 -429502 -429987 -430192
          -430182 -430031 -429808 -429577 -429390 -429286 -427425 -428240 -428737 -428965 -428987 -428871
          -428682 -428481 -428317 -428226 -498083 -501069 -502356 -502168 -500922 -499097 -497125 -495357
          -494044 -493349 -500719 -503788 -504892 -504336 -502660 -500430 -498126 -496110 -494637 -493862
          -506050 -509341 -510034 -508662 -506063 -502996 -500021 -497517 -495728 -494800 -514086 -517906
          -517849 -515033 -510910 -506542 -502572 -499364 -497128 -495983 -524446 -529500 -528126 -522986
          -516662 -510574 -505364 -501310 -498545 -497144 -535475 -543150 -539518 -531133 -522177 -514239
          -507774 -502880 -499591 -497935 -542608 -554109 -547624 -536399 -525512 -516316 -509001 -503508
          -499818 -497958 -538520 -548522 -544332 -534720 -524539 -515585 -508268 -502638 -498783 -496819
          -527254 -534352 -532906 -526682 -519004 -511611 -505141 -499880 -496142 -494200 -514272 -519133
          -519037 -515484 -510346 -504868 -499653 -495111 -491742 -489953 -501861 -505138 -505420 -503396
          -500058 -496172 -492196 -488532 -485714 -484190 -490439 -492594 -492823 -491537 -489279 -486504
          -483541 -480730 -478524 -477316 -479866 -481285 -481375 -480439 -478810 -476775 -474575 -472481
          -470829 -469920 -470087 -471090 -471107 -470387 -469163 -467640 -466003 -464461 -463252 -462587
          -461255 -462065 -462099 -461563 -460642 -459496 -458276 -457142 -456262 -455781 -453606 -454347
          -454454 -454093 -453417 -452562 -451653 -450815 -450171 -449820 -447336 -448066 -448263 -448060
          -447583 -446951 -446270 -445644 -445165 -444906 -442570 -443308 -443588 -443511 -443187 -442718
          -442200 -441719 -441351 -441152 -439371 -440122 -440460 -440471 -440249 -439888 -439474 -439085
          -438786 -438624 -437768 -438526 -438894 -438949 -438779 -438471 -438108 -437764 -437498 -437353
          -520841 -524227 -525379 -524644 -522616 -519934 -517161 -514731 -512952 -512016 -524932 -528408
          -529222 -527883 -525180 -521887 -518622 -515834 -513823 -512774 -533498 -537257 -537268 -534517
          -530314 -525718 -521442 -517932 -515463 -514191 -547254 -551906 -550265 -544784 -537934 -531212
          -525376 -520793 -517654 -516060 -566902 -574493 -569236 -558672 -547594 -537846 -529956 -524021
          -520052 -518062 -591466 -608517 -594258 -574824 -557893 -544536 -534397 -527026 -522177 -519763
          -612355 -653509 -618167 -587845 -565607 -549406 -537556 -529036 -523431 -520634 -602227 -630368
          -610901 -586741 -566089 -550184 -538156 -529204 -523157 -520097 -578151 -592566 -586364 -572718
          -558336 -545799 -535318 -526806 -520751 -517613 -555193 -562876 -561293 -554376 -545664 -537023
          -528833 -521404 -515800 -512822 -536159 -540256 -539726 -536004 -530755 -524978 -518943 -513005
          -508311 -505760 -520070 -522023 -521410 -518965 -515474 -511427 -507018 -502586 -499005 -497027
          -505635 -506397 -505567 -503644 -501047 -498041 -494790 -491585 -489000 -487564 -492327 -492609
          -491759 -490172 -488132 -485826 -483404 -481098 -479268 -478257 -480349 -480559 -479871 -478612
          -477012 -475233 -473418 -471745 -470447 -469735 -470075 -470380 -469935 -469002 -467780 -466419
          -465053 -463824 -462887 -462379 -461765 -462198 -461992 -461350 -460444 -459411 -458376 -457455
          -456762 -456389 -455529 -456071 -456058 -455645 -454981 -454191 -453390 -452678 -452145 -451859
          -451388 -452004 -452120 -451863 -451361 -450732 -450080 -449498 -449062 -448829 -449326 -449978
          -450158 -449979 -449558 -449008 -448430 -447910 -447520 -447312 -546339 -550141 -551096 -549712
          -546782 -543126 -539444 -536266 -533959 -532751 -552308 -556142 -556527 -554230 -550326 -545809
          -541446 -537777 -535155 -533794 -565218 -569230 -568185 -563684 -557554 -551162 -545372 -540698
          -537441 -535773 -587226 -592243 -587967 -578915 -568659 -559082 -551017 -544803 -540591 -538465
          -621844 -632436 -619589 -601011 -583584 -569166 -557938 -549683 -544232 -541516 -672522 -714903
          -669267 -629987 -601122 -580285 -565286 -554690 -547819 -544422 -731063 -992942 -737280 -659140
          -616905 -589970 -571649 -558895 -550621 -546522 -701957 -812479 -719194 -662530 -621770 -594338
          -575142 -561133 -551739 -547016 -648572 -681209 -662894 -636258 -610796 -590572 -574067 -560152
          -550164 -545026 -608479 -621022 -616920 -605345 -592059 -579759 -567391 -554678 -544904 -539778
          -580130 -584813 -582894 -577100 -569924 -562432 -553809 -543709 -535481 -531057 -558104 -558720
          -556440 -552436 -547669 -542418 -536217 -529076 -523086 -519779 -538485 -537257 -534593 -531182
          -527410 -523324 -518748 -513867 -509800 -507529 -520024 -518517 -516020 -513086 -509960 -506690
          -503270 -499902 -497177 -495660 -503384 -502286 -500316 -497950 -495423 -492836 -490264 -487886
          -486026 -485004 -489321 -488764 -487401 -485622 -483660 -481652 -479712 -477989 -476681 -475972
          -478173 -478066 -477230 -475966 -474488 -472949 -471475 -470193 -469238 -468726 -469966 -470173
          -469726 -468855 -467751 -466563 -465416 -464426 -463696 -463308 -464596 -464991 -464793 -464183
          -463327 -462370 -461433 -460623 -460026 -459711 -461945 -462428 -462350 -461868 -461136 -460293
          -459458 -458733 -458200 -457918 -573971 -578208 -578963 -576915 -573053 -568382 -563742 -559769
          -556898 -555398 -582075 -586172 -586064 -582776 -577633 -571843 -566324 -561718 -558441 -556743
          -600069 -603795 -601484 -595186 -587091 -578838 -571453 -565534 -561426 -559327 -632154 -635356
          -628117 -615627 -601974 -589444 -579011 -571027 -565638 -562924 -685514 -690478 -671546 -646431
          -622863 -603551 -588690 -577845 -570712 -567166 -764882 -793669 -740787 -689908 -649511 -620398
          -599812 -585404 -576101 -571512 -834975 -1.03247e+06 -837454 -742717 -678180 -637614 -611082 -592820
          -581025 -575210 -815486 -1.04595e+06 -861292 -776209 -695929 -649950 -620432 -598843 -584412 -577238
          -731636 -787259 -760418 -722184 -680540 -650463 -625345 -601689 -584749 -576268 -673163 -690778
          -685307 -670446 -653836 -640451 -622895 -598256 -579907 -570797 -635545 -638992 -635050 -627720
          -620240 -613533 -602913 -583422 -567897 -559981 -607575 -603742 -598212 -592316 -586850 -581376
          -573437 -561247 -550855 -545269 -581192 -574835 -568621 -563010 -557969 -552936 -546841 -539356
          -532940 -529380 -554824 -549336 -543860 -538886 -534369 -529992 -525363 -520546 -516563 -514343
          -531049 -527372 -523252 -519258 -515510 -511932 -508441 -505173 -502594 -501174 -511482 -509388
          -506593 -503622 -500697 -497894 -495266 -492950 -491193 -490243 -496443 -495448 -493690 -491587
          -489388 -487237 -485245 -483541 -482282 -481610 -485659 -485349 -484304 -482843 -481199 -479539
          -477993 -476686 -475732 -475228 -478736 -478812 -478200 -477151 -475873 -474535 -473273 -472206
          -471431 -471023 -475359 -475606 -475197 -474346 -473249 -472069 -470946 -469992 -469300 -468936
          -602847 -607620 -608287 -605686 -600981 -595345 -589768 -584997 -581551 -579752 -613010 -617406
          -616915 -612782 -606530 -599547 -592908 -587368 -583427 -581385 -636034 -639192 -635701 -627872
          -618058 -608104 -599199 -592052 -587087 -584548 -678803 -678360 -668191 -652921 -636435 -621287
          -608633 -598914 -592337 -589019 -755332 -745422 -720900 -691353 -662924 -639374 -621125 -607712
          -598850 -594436 -880340 -855916 -803751 -748912 -698932 -662386 -636432 -618070 -606142 -600252
          -937639 -1.00206e+06 -923099 -838168 -744674 -689358 -654127 -629500 -613522 -605676 -905776 -1.05245e+06
          -1.04617e+06 -1.02256e+06 -791337 -716221 -673752 -641405 -619961 -609530 -813495 -870919 -867082 -833120
          -769094 -731811 -695484 -652541 -623607 -610016 -746397 -764138 -761201 -748794 -737127 -739711
          -718840 -657419 -620608 -604605 -704614 -701601 -694345 -687222 -684530 -688233 -684378 -636249
          -605157 -591242 -673202 -657661 -645896 -637729 -633008 -630017 -621986 -599371 -581290 -572213
          -637533 -619582 -606967 -598156 -591823 -586233 -578637 -567144 -557317 -552011 -598323 -584988
          -574581 -566674 -560415 -554796 -548780 -542097 -536521 -533438 -563612 -555410 -548006 -541775
          -536489 -531741 -527190 -522877 -519463 -517588 -536277 -531734 -526904 -522377 -518275 -514544
          -511136 -508155 -505902 -504686 -516132 -513834 -510846 -507700 -504648 -501799 -499234 -497071
          -495484 -494642 -502155 -501138 -499339 -497174 -494913 -492728 -490750 -489102 -487912 -487287
          -493385 -493046 -491938 -490384 -488635 -486883 -485275 -483937 -482975 -482472 -489162 -489115
          -488321 -487056 -485557 -484017 -482588 -481395 -480538 -480090 -632004 -637552 -638403 -635500
          -630152 -623686 -617243 -611705 -607693 -605595 -643670 -648729 -648227 -643588 -636497 -628507
          -620853 -614429 -609842 -607461 -670109 -673544 -669538 -660738 -649677 -638351 -628114 -619834
          -614053 -611088 -719190 -717842 -706054 -689015 -670670 -653591 -639096 -627824 -620140 -616250
          -806691 -792425 -764144 -731700 -700852 -674717 -653883 -638246 -627802 -622576 -949922 -911015
          -852000 -792882 -741566 -702230 -672667 -650939 -636608 -629506 -1.05397e+06 -1.05562e+06 -968287 -873690
          -792081 -736523 -696261 -665946 -645984 -636210 -988042 -1.05702e+06 -1.05078e+06 -950656 -841514 -778264
          -728321 -683994 -655078 -641388 -893105 -938247 -932995 -894066 -853457 -834227 -785327 -706812
          -662063 -642874 -827463 -837456 -832068 -826035 -844721 -955158 -957322 -731683 -661711 -637228
          -789543 -770628 -756105 -750272 -760000 -796182 -874551 -700438 -642162 -621065 -759485 -719149
          -696575 -685093 -681953 -683900 -680519 -638256 -610406 -597697 -708319 -669561 -647251 -634007
          -625907 -619518 -610328 -593810 -580407 -573446 -649408 -623569 -606293 -594591 -586129 -578943
          -571325 -562647 -555528 -551656 -599628 -584835 -573145 -564182 -557079 -550980 -545265 -539887
          -535676 -533384 -562448 -554603 -547266 -540929 -535507 -530764 -526535 -522888 -520159 -518696
          -536254 -532315 -527892 -523587 -519617 -516037 -512886 -510268 -508366 -507361 -518689 -516834
          -514198 -511282 -508379 -505661 -503250 -501270 -499853 -499111 -507919 -507116 -505479 -503404
          -501181 -499016 -497068 -495467 -494326 -493731 -502801 -502436 -501243 -499560 -497664 -495769
          -494043 -492619 -491605 -491077 -660790 -667452 -668885 -666048 -660334 -653210 -645986 -639711
          -635135 -632734 -673275 -679491 -679519 -674840 -667259 -658482 -649928 -642671 -637455 -634739
          -701276 -706005 -702421 -693383 -681600 -669235 -657857 -648544 -641996 -638628 -752081 -752502
          -741050 -723582 -704288 -685849 -669846 -657221 -648546 -644140 -838412 -827889 -800460 -767984
          -736501 -708823 -685997 -668529 -656758 -650849 -966266 -938380 -884173 -828268 -779106 -738774
          -706565 -682277 -666126 -658105 -1.05111e+06 -1.05249e+06 -980693 -899938 -831176 -776821 -732456 -698382
          -675917 -664927 -1.03382e+06 -1.05902e+06 -1.03599e+06 -958629 -886378 -826412 -766466 -716876 -684900 -669762
          -965502 -995121 -980222 -950857 -928287 -900214 -814281 -736340 -690368 -670080 -913784 -909116
          -897128 -899434 -939655 -1.04353e+06 -869619 -745774 -686138 -662245 -885280 -841041 -815196 -808278
          -819710 -833750 -793210 -710811 -663637 -643594 -856313 -780944 -744712 -727892 -721425 -714683
          -693520 -657156 -630716 -617961 -774523 -717181 -684851 -666363 -654777 -644376 -630469 -612859
          -598832 -591494 -698662 -660031 -635728 -619967 -608790 -599293 -589615 -579742 -571912 -567690
          -634356 -612508 -596464 -584732 -575712 -568125 -561219 -555010 -550272 -547721 -587317 -576004
          -566186 -558091 -551377 -545638 -540635 -536424 -533327 -531682 -555172 -549582 -543788 -538397
          -533571 -529312 -525629 -522617 -520454 -519319 -534181 -531526 -528118 -524522 -521041 -517844
          -515050 -512782 -511171 -510333 -521548 -520324 -518218 -515684 -513043 -510518 -508273 -506445
          -505150 -504479 -515610 -514969 -513431 -511386 -509145 -506943 -504960 -503338 -502188 -501592
          -688992 -697166 -699670 -697346 -691584 -683958 -675990 -668952 -663775 -661048 -701788 -709662
          -710811 -706609 -698891 -689504 -680102 -672003 -666134 -663067 -730319 -737078 -734727 -726086
          -713982 -700780 -688343 -678024 -670719 -666949 -781954 -784944 -774821 -757623 -737751 -718124
          -700720 -686834 -677244 -672364 -871629 -862263 -835697 -803462 -771255 -741928 -717197 -698114
          -685234 -678768 -1.0178e+06 -973598 -918644 -864397 -815269 -772668 -737740 -711398 -693968 -685340
          -1.06012e+06 -1.06812e+06 -1.00646e+06 -935436 -869960 -811496 -762595 -726046 -702378 -690876 -1.07359e+06 -1.06029e+06
          -1.05849e+06 -1.00019e+06 -935079 -861945 -792450 -740856 -708727 -693598 -1.03735e+06 -1.05074e+06 -1.03535e+06 -1.01985e+06
          -1.0052e+06 -931778 -825721 -752090 -709842 -690943 -1.00112e+06 -977352 -958757 -972414 -1.04915e+06 -1.0329e+06
          -843124 -748620 -700427 -679914 -970604 -902565 -865580 -855686 -862627 -839964 -773119 -713048
          -676082 -659254 -913129 -828176 -783166 -760726 -747957 -729062 -698637 -666769 -644022 -632763
          -820438 -753612 -714610 -691499 -675744 -660557 -643170 -625729 -612501 -605598 -736794 -688672
          -659366 -640336 -626568 -614763 -603439 -593038 -585152 -580958 -661852 -634740 -615601 -601766
          -591138 -582253 -574408 -567694 -562728 -560092 -607407 -593630 -582091 -572717 -565002 -558466
          -552870 -548275 -544960 -543218 -570888 -564186 -557467 -551313 -545855 -541082 -537001 -533709
          -531372 -530154 -547418 -544251 -540338 -536276 -532384 -528837 -525762 -523286 -521540 -520635
          -533444 -531967 -529561 -526720 -523790 -521007 -518548 -516556 -515152 -514425 -526914 -526116
          -524363 -522080 -519603 -517185 -515018 -513253 -512006 -511361 -716680 -726851 -731038 -729795
          -724345 -716303 -707490 -699533 -693625 -690500 -729304 -739464 -742455 -739348 -731864 -721947
          -711602 -702516 -695878 -692397 -757001 -767047 -766983 -759440 -747360 -733371 -719780 -708341
          -700196 -695984 -805444 -815093 -808299 -792099 -771776 -750847 -731914 -716698 -706176 -700823
          -883680 -892663 -871592 -839864 -806163 -774540 -747677 -727017 -713143 -706203 -992760 -1.00287e+06
          -957931 -903753 -851151 -804327 -766410 -738376 -720081 -711087 -1.06627e+06 -1.08298e+06 -1.04394e+06 -979077
          -907226 -840115 -787122 -749403 -725558 -714070 -1.09543e+06 -1.06752e+06 -1.0953e+06 -1.05324e+06 -977011 -882059
          -807970 -757866 -727544 -713326 -1.08913e+06 -1.09956e+06 -1.08897e+06 -1.06491e+06 -1.054e+06 -922381 -822328 -759258
          -723099 -706669 -1.07018e+06 -1.03209e+06 -1.00265e+06 -1.00389e+06 -1.03423e+06 -917629 -811491 -745664 -708743 -692189
          -1.01687e+06 -943533 -897129 -876112 -862552 -814587 -757194 -711966 -683407 -669922 -935379 -855490
          -806503 -777843 -756623 -729431 -698662 -671540 -652665 -643236 -840591 -774310 -733162 -706851