<?xml version="1.0"?>
<VTKFile type="UnstructuredGrid" version="0.1" byte_order="LittleEndian">
  <UnstructuredGrid>
    <Piece NumberOfCells="3800" NumberOfPoints="4620">
      <CellData Scalars="p (Pa)">
        <DataArray type="Float32" Name="p (Pa)" NumberOfComponents="1" format="ascii">
          -607954 -612578 -621796 -635491 -653355 -674780 -698863 -724561 -750764 -776311 -608409 -613289
          -623062 -637674 -656841 -679851 -705557 -732767 -760324 -787040 -609100 -614473 -625339 -641823
          -663760 -690224 -719375 -749711 -780060 -809314 -609595 -615633 -628031 -647304 -673691 -706012
          -740729 -775928 -810650 -844371 -609297 -616016 -630061 -652596 -684815 -725674 -767954 -809716
          -850721 -892111 -607580 -614746 -629902 -654800 -691861 -741309 -791044 -840819 -891574 -946684
          -604030 -611214 -626327 -650871 -686706 -733986 -787184 -846608 -914505 -992908 -598647 -605544
          -619915 -642878 -675805 -719452 -773194 -839266 -921906 -1.02214e+06 -591704 -598191 -611630 -632928
          -663355 -704378 -757911 -828108 -920996 -1.03292e+06 -583552 -589606 -602127 -621963 -650451 -689595
          -742628 -815304 -915834 -1.03906e+06 -574526 -580139 -591757 -610211 -636903 -674088 -725521 -797723
          -901323 -1.04686e+06 -564939 -570080 -580727 -597666 -622230 -656506 -703568 -767155 -847163 -914642
          -555103 -559717 -569259 -584397 -606219 -636237 -675978 -724971 -774476 -798156 -545362 -549394
          -557691 -570729 -589218 -613918 -644859 -679033 -706696 -716162 -536097 -539522 -546506 -557303
          -572203 -591268 -613615 -636056 -652350 -657854 -527702 -530548 -536288 -544982 -556606 -570822
          -586536 -601375 -611945 -616246 -520545 -522893 -527573 -534521 -543540 -554154 -565401 -575705
          -583242 -587008 -514927 -516890 -520764 -526416 -533582 -541784 -550251 -557942 -563800 -567230
          -511067 -512773 -516113 -520927 -526933 -533688 -540571 -546835 -551781 -554992 -509105 -510682
          -513758 -518164 -523617 -529700 -535866 -541500 -546041 -549141 -619888 -624821 -634666 -649311
          -668418 -691287 -716886 -744162 -772206 -800292 -620357 -625596 -636117 -651902 -672656 -697492
          -724909 -753610 -782658 -811444 -621051 -626891 -638779 -656998 -681493 -710994 -742455 -774038
          -804859 -834813 -621485 -628154 -642039 -664165 -695436 -734294 -772863 -808670 -841274 -872365
          -620965 -628494 -644621 -671775 -713656 -770666 -819864 -860432 -893244 -924911 -618743 -626789
          -644362 -675326 -727940 -813279 -871501 -915962 -948958 -984438 -614337 -622222 -639187 -667973
          -712994 -776214 -836881 -896723 -957925 -1.02211e+06 -607840 -615150 -630542 -655577 -692251 -741021
          -797015 -861604 -938083 -1.02669e+06 -599674 -606297 -620036 -641835 -672869 -713958 -765226 -829255
          -910458 -1.00798e+06 -590318 -596283 -608564 -627848 -655091 -691450 -738511 -799391 -878572 -975585
          -580207 -585562 -596554 -613748 -637997 -670489 -712926 -767801 -837285 -913839 -569715 -574488
          -584264 -599505 -620909 -649385 -685918 -730917 -781526 -823919 -559191 -563386 -571950 -585223
          -603672 -627758 -657521 -691485 -724454 -745738 -548983 -552600 -559945 -571216 -586623 -606191
          -629263 -653580 -674377 -685919 -539446 -542504 -548666 -557992 -570466 -585795 -603031 -620072
          -633645 -640941 -530926 -533475 -538566 -546151 -556060 -567852 -580593 -592682 -602105 -607432
          -523737 -525858 -530055 -536215 -544093 -553219 -562802 -571712 -578718 -583018 -518132 -519925
          -523447 -528549 -534963 -542251 -549773 -556724 -562313 -566025 -514298 -515872 -518946 -523359
          -528843 -535000 -541298 -547128 -551919 -555296 -512353 -513818 -516669 -520745 -525781 -531402
          -537133 -542453 -546884 -550106 -630036 -635198 -645512 -660880 -680966 -705042 -732030 -760926
          -791017 -822003 -630468 -635966 -647027 -663675 -685639 -711971 -740946 -771265 -802185 -833589
          -631073 -637234 -649829 -669283 -695716 -727769 -761327 -794498 -826592 -858174 -631330 -638418
          -653313 -677512 -712865 -758430 -800527 -837538 -869343 -899050 -630489 -638547 -656122 -687006
          -739240 -823100 -877633 -915644 -939057 -960043 -627726 -636346 -655683 -692411 -769770 -1.0105e+06
          -1.04176e+06 -1.0505e+06 -1.03407e+06 -1.03391e+06 -622518 -630832 -649024 -681164 -736006 -825914 -893641 -956681
          -1.0186e+06 -1.0625e+06 -615031 -622555 -638513 -664865 -704464 -758465 -816620 -881470 -955122 -1.02926e+06
          -605795 -612427 -626192 -648048 -679128 -719830 -768644 -826714 -895403 -971006 -595395 -601197
          -613097 -631639 -657464 -691056 -732632 -782981 -842410 -906549 -584345 -589410 -599733 -615666
          -637648 -666101 -701340 -743461 -791066 -837081 -573082 -577485 -586418 -600111 -618835 -642788
          -671884 -705243 -739913 -768609 -561987 -565780 -573442 -585095 -600840 -620608 -643869 -669102
          -693025 -710372 -551409 -554638 -561123 -570892 -583890 -599832 -617929 -636525 -652887 -663867
          -541677 -544392 -549810 -557878 -568427 -581048 -594898 -608533 -620006 -627539 -533091 -535358
          -539851 -546460 -554953 -564882 -575482 -585634 -594032 -599651 -525915 -527814 -531553 -536993
          -543875 -551771 -560040 -567848 -574325 -578833 -520357 -521979 -525153 -529728 -535446 -541920
          -548621 -554923 -560215 -564062 -516571 -518008 -520809 -524820 -529793 -535376 -541122 -546532
          -551138 -554606 -514654 -515999 -518616 -522350 -526961 -532118 -537414 -542409 -546700 -549994
          -638167 -643447 -654000 -669736 -690347 -715165 -743218 -773621 -805824 -839810 -638497 -644103
          -655377 -672337 -694721 -721669 -751697 -783629 -816838 -851400 -638889 -645133 -657864 -677432
          -703856 -735890 -770409 -805609 -840712 -875866 -638812 -645928 -660774 -684516 -718258 -760565
          -803299 -844044 -881960 -916533 -637511 -645511 -662691 -691747 -736881 -799121 -854906 -904576
          -948316 -978236 -634179 -642660 -661240 -694148 -750526 -843302 -911536 -974716 -1.04139e+06 -1.05538e+06
          -628321 -636513 -654185 -684322 -731850 -799724 -868763 -948826 -1.05557e+06 -1.06344e+06 -620100 -627508
          -643117 -668531 -705789 -755365 -812508 -879794 -959615 -1.02376e+06 -610069 -616544 -629934 -651039
          -680715 -719111 -765059 -818707 -879236 -938429 -598872 -604450 -615842 -633454 -657681 -688606
          -725810 -768705 -815515 -860842 -587096 -591869 -601542 -616316 -636362 -661654 -691789 -725785
          -761317 -793273 -575236 -579301 -587489 -599882 -616498 -637162 -661304 -687651 -713698 -735184
          -563705 -567146 -574041 -584384 -598078 -614811 -633870 -653887 -672611 -687030 -552858 -555750
          -561514 -570082 -581272 -594685 -609560 -624634 -638129 -648116 -542998 -545416 -550208 -557261
          -566345 -577029 -588598 -599996 -609928 -617194 -534391 -536411 -540391 -546195 -553572 -562106
          -571171 -579940 -587499 -593084 -527256 -528957 -532292 -537116 -543178 -550098 -557354 -564308
          -570307 -574842 -521762 -523226 -526084 -530191 -535307 -541094 -547114 -552868 -557871 -561754
          -518034 -519342 -521887 -525527 -530036 -535108 -540365 -545393 -549804 -553305 -516151 -517381
          -519772 -523183 -527396 -532123 -537016 -541703 -545839 -549163 -644227 -649518 -660095 -675880
          -696610 -721737 -750468 -782058 -816071 -852616 -644403 -649986 -661197 -678037 -700277 -727236
          -757804 -790991 -826263 -863800 -644494 -650633 -663090 -682089 -707562 -738583 -773170 -809788
          -847636 -886833 -643982 -650860 -665044 -687250 -717948 -756000 -797429 -839885 -882081 -923315
          -642157 -649758 -665734 -691612 -729106 -777512 -828840 -880450 -930610 -974616 -638291 -646276
          -663282 -691545 -734323 -792758 -853983 -917744 -983462 -1.03274e+06 -631944 -639723 -656193 -683241
          -723375 -777486 -840051 -911264 -992610 -1.05197e+06 -623233 -630343 -645194 -668995 -703172 -748188
          -802051 -863833 -932269 -995858 -612677 -618912 -631757 -651883 -679989 -716227 -759631 -808734
          -860918 -910382 -600938 -606276 -617150 -633889 -656774 -685733 -720009 -758049 -797082 -832597
          -588657 -593165 -602270 -616098 -634687 -657802 -684693 -713869 -742807 -767795 -576377 -580156
          -587734 -599114 -614193 -632623 -653637 -675856 -697142 -714678 -564546 -567696 -573977 -583317
          -595526 -610196 -626574 -643442 -659097 -671567 -553523 -556140 -561331 -568980 -578853 -590524
          -603294 -616142 -627778 -636884 -543597 -545771 -550060 -556328 -564323 -573636 -583652 -593549
          -602379 -609269 -535003 -536817 -540379 -545545 -552067 -559572 -567536 -575314 -582214 -587645
          -527926 -529459 -532457 -536777 -542187 -548352 -554837 -561133 -566728 -571202 -522505 -523832
          -526419 -530128 -534745 -539972 -545443 -550747 -555487 -559346 -518839 -520031 -522351 -525665
          -529775 -534410 -539250 -543946 -548170 -551662 -516991 -518117 -520304 -523426 -527288 -531637
          -536175 -540583 -544565 -547884 -648324 -653551 -664005 -679629 -700225 -725369 -754434 -786783
          -822011 -860175 -648327 -653805 -664800 -681317 -703190 -729929 -760713 -794698 -831381 -870935
          -648087 -654038 -666076 -684367 -708874 -739005 -773474 -810922 -850558 -892649 -647128 -653695
          -667138 -687954 -716460 -752057 -792613 -835740 -880009 -925543 -644811 -651973 -666844 -690433
          -723795 -766745 -816004 -867347 -918293 -968437 -640496 -647993 -663733 -689224 -726471 -776474
          -835491 -896369 -955588 -1.0119e+06 -633794 -641168 -656669 -681857 -719011 -770201 -834016 -899725
          -963627 -1.0244e+06 -624772 -631590 -645812 -668618 -701635 -746212 -801290 -860515 -919057 -973815
          -613896 -619905 -632302 -651803 -679303 -715360 -759086 -806865 -853636 -894496 -601826 -606954
          -617415 -633565 -655765 -684044 -717503 -753649 -788490 -817758 -589230 -593520 -602185 -615345
          -633037 -655000 -680332 -707160 -732623 -753589 -576692 -580242 -587351 -598000 -612054 -629118
          -648353 -668309 -686964 -702138 -564684 -567606 -573416 -582020 -593201 -606528 -621256 -636254
          -650080 -661253 -553571 -555973 -560722 -567688 -576626 -587117 -598520 -609956 -620386 -628807
          -543633 -545614 -549512 -555186 -562388 -570737 -579694 -588576 -596629 -603165 -535081 -536730
          -539961 -544633 -550513 -557265 -564440 -571506 -577904 -583152 -528075 -529470 -532195 -536115
          -541017 -546605 -552509 -558305 -563569 -567945 -522730 -523942 -526303 -529688 -533901 -538683
          -543718 -548659 -553170 -556974 -519125 -520219 -522346 -525387 -529163 -533437 -537931 -542346
          -546399 -549856 -517311 -518346 -520359 -523233 -526796 -530825 -535060 -539225 -543061 -546354
          -650671 -655789 -666032 -681376 -701688 -726654 -755767 -788435 -824196 -862880 -650506 -655841
          -666554 -682676 -704125 -730568 -761369 -795734 -833093 -873406 -649953 -655696 -667309 -684973
          -708758 -738352 -772823 -810794 -851353 -894700 -648588 -654864 -667691 -687555 -714918 -749714
          -790544 -834474 -879732 -927041 -645852 -652652 -666748 -689118 -721071 -763505 -814720 -867467
          -918130 -969422 -641185 -648313 -663284 -687677 -724147 -776091 -843481 -907085 -960547 -1.01348e+06
          -634232 -641306 -656259 -680989 -719230 -777803 -864109 -933585 -981699 -1.02994e+06 -625022 -631615
          -645470 -668104 -702213 -751683 -818007 -883769 -938459 -982213 -613977 -619805 -631908 -651240
          -679295 -717800 -766893 -820381 -867507 -899363 -601741 -606699 -616863 -632717 -654904 -683914
          -719161 -757239 -791432 -815618 -588993 -593109 -601444 -614174 -631444 -653139 -678408 -704995
          -729129 -747338 -576339 -579708 -586463 -596600 -610018 -626362 -644798 -663774 -681097 -694729
          -564264 -567007 -572461 -580534 -591019 -603506 -617273 -631222 -643980 -654271 -553140 -555374
          -559788 -566252 -574530 -584228 -594751 -605298 -614950 -622862 -543237 -545068 -548667 -553896
          -560522 -568194 -576427 -584622 -592130 -598370 -534753 -536272 -539246 -543541 -548942 -555144
          -561752 -568305 -574327 -579400 -527829 -529114 -531622 -535230 -539741 -544893 -550359 -555774
          -560773 -565044 -522562 -523680 -525859 -528983 -532877 -537308 -542000 -546653 -550971 -554706
          -519018 -520029 -521998 -524815 -528318 -532299 -536512 -540694 -544596 -548004 -517236 -518196
          -520062 -522730 -526045 -529809 -533792 -537751 -541454 -544707 -651532 -656510 -666486 -681464
          -701370 -725978 -754863 -787446 -823150 -861502 -651213 -656381 -666771 -682448 -703402 -729426
          -760010 -794377 -831818 -871946 -650379 -655906 -667094 -684163 -707294 -736399 -770782 -809023
          -849983 -893486 -648659 -654659 -666939 -686035 -712615 -747080 -788534 -833512 -879661 -927564
          -645568 -652048 -665512 -687047 -718412 -761723 -816839 -872876 -924429 -975845 -640620 -647425
          -661794 -685567 -722512 -779816 -865886 -937717 -986454 -1.03421e+06 -633492 -640286 -654778 -679349
          -719923 -793932 -972326 -1.03793e+06 -1.04298e+06 -1.06934e+06 -624191 -630556 -644053 -666587 -702201 -759037
          -848517 -933865 -995525 -1.0263e+06 -613104 -618742 -630542 -649717 -678518 -720632 -780171 -853093
          -913155 -927896 -600847 -605636 -615510 -631102 -653426 -683776 -722869 -767676 -805719 -823861
          -588092 -592048 -600090 -612465 -629478 -651298 -677417 -705454 -729968 -745949 -575448 -578664
          -585125 -594859 -607827 -623773 -641952 -660744 -677568 -690153 -563408 -566006 -571176 -578842
          -588823 -600751 -613949 -627332 -639491 -649188 -552343 -554445 -558597 -564681 -572477 -581621
          -591558 -601536 -610684 -618230 -542521 -544234 -547602 -552494 -558694 -565879 -573605 -581324
          -588448 -594455 -534128 -535546 -538321 -542328 -547369 -553165 -559360 -565539 -571276 -576198
          -527296 -528494 -530833 -534197 -538409 -543229 -548365 -553491 -558279 -562447 -522109 -523152
          -525186 -528104 -531746 -535904 -540329 -544752 -548908 -552572 -518623 -519569 -521409 -524046
          -527331 -531077 -535063 -539055 -542825 -546178 -516873 -517770 -519517 -522018 -525131 -528680
          -532457 -536243 -539830 -543035 -651185 -656002 -665662 -680194 -699566 -723617 -751989 -784120
          -819322 -856836 -650727 -655709 -665732 -680883 -701201 -726570 -756593 -790563 -827655 -867113
          -649640 -654934 -665655 -682035 -704312 -732532 -766237 -804276 -845359 -888696 -647604 -653308
          -664984 -683151 -708506 -741608 -782063 -827502 -875156 -924184 -644201 -650325 -663038 -683348
          -712896 -753707 -806380 -865358 -922687 -978175 -639012 -645425 -658940 -681203 -715419 -767078
          -841810 -927559 -994724 -1.04998e+06 -631760 -638171 -651811 -674767 -711684 -772897 -878665 -1.02162e+06
          -1.06474e+06 -1.07311e+06 -622453 -628485 -641273 -662598 -696151 -749089 -832663 -948832 -1.05523e+06 -1.06955e+06
          -611438 -616806 -628062 -646425 -674284 -716262 -782382 -905154 -1.0151e+06 -965806 -599291 -603864
          -613316 -628314 -650028 -680310 -721761 -775801 -821915 -832137 -586659 -590438 -598136 -610029
          -626508 -647966 -674372 -703883 -729526 -744104 -574140 -577208 -583377 -592697 -605171 -620630
          -638462 -657133 -673790 -685845 -562224 -564695 -569615 -576920 -586456 -597896 -610620 -623586
          -635372 -644727 -551282 -553275 -557212 -562985 -570393 -579100 -588591 -598154 -606954 -614255
          -541580 -543200 -546383 -551011 -556881 -563695 -571042 -578412 -585256 -591086 -533300 -534638
          -537256 -541040 -545805 -551294 -557178 -563078 -568598 -573393 -526567 -527697 -529904 -533079
          -537060 -541627 -546511 -551413 -556034 -560109 -521462 -522446 -524366 -527122 -530568 -534513
          -538729 -542970 -546993 -550586 -518034 -518927 -520665 -523158 -526271 -529831 -533637 -537474
          -541131 -544428 -516314 -517161 -518812 -521179 -524132 -527508 -531118 -534763 -538247 -541401
          -649920 -654559 -663868 -677886 -696611 -719927 -747532 -778893 -813247 -849610 -649338 -654116
          -663733 -678280 -697821 -722300 -751420 -784580 -820926 -859421 -648023 -653064 -663267 -678849
          -700047 -726972 -759375 -796474 -837123 -880093 -645702 -651083 -662074 -679121 -702820 -733705
          -771752 -815796 -863915 -914275 -642019 -647740 -659564 -678291 -705171 -741709 -788729 -844481
          -905015 -966794 -636623 -642569 -655003 -675154 -705208 -748476 -808248 -882735 -962675 -1.03854e+06
          -629289 -635216 -647702 -668248 -699786 -747549 -818981 -915394 -1.01586e+06 -1.0748e+06 -620038 -625635
          -637402 -656689 -686053 -729896 -794399 -883100 -984262 -1.06059e+06 -609184 -614199 -624656 -641528
          -666595 -702884 -755102 -827934 -900825 -934732 -597252 -601555 -610419 -624402 -644428 -671816
          -707921 -751892 -792770 -815946 -584848 -588424 -595697 -606904 -622362 -642345 -666668 -693584
          -718090 -734862 -572545 -575459 -581316 -590156 -601973 -616593 -633437 -651129 -667273 -679589
          -560824 -563177 -567860 -574813 -583890 -594785 -606923 -619349 -630777 -640029 -550054 -551953
          -555705 -561207 -568272 -576587 -585672 -594866 -603389 -610539 -540502 -542046 -545080 -549493
          -555096 -561609 -568650 -575744 -582371 -588069 -532351 -533625 -536121 -539730 -544279 -549529
          -555174 -560858 -566209 -570897 -525724 -526800 -528904 -531933 -535736 -540108 -544798 -549527
          -554013 -558005 -520700 -521638 -523469 -526100 -529394 -533174 -537228 -541325 -545238 -548765
          -517328 -518179 -519838 -522219 -525197 -528612 -532275 -535987 -539550 -542790 -515636 -516444
          -518020 -520281 -523108 -526348 -529826 -533354 -536751 -539855 -648024 -652479 -661422 -674895
          -692912 -715386 -742061 -772428 -805674 -840633 -647332 -651902 -661099 -675008 -693705 -717165
          -745172 -777220 -812464 -849684 -645820 -650603 -660274 -675020 -695056 -720517 -751303 -786928
          -826475 -868554 -643253 -648306 -658596 -674478 -696431 -724917 -760131 -801701 -848623 -899078
          -639330 -644642 -655555 -672663 -696855 -729207 -770599 -821127 -879972 -944474 -633768 -639235
          -650562 -668600 -694752 -730995 -779527 -841804 -918397 -1.00604e+06 -626393 -631816 -643110 -661273
          -688055 -726190 -779310 -850911 -944143 -1.05683e+06 -617244 -622376 -633052 -650186 -675360 -710991
          -760167 -825391 -905881 -991997 -606606 -611237 -620813 -636009 -657951 -688264 -728809 -780082
          -835789 -883298 -594951 -598962 -607176 -619991 -637999 -661897 -692071 -727315 -762438 -790202
          -582838 -586202 -593021 -603460 -617708 -635845 -657511 -681259 -703924 -721883 -570807 -573571
          -579115 -587457 -598552 -612196 -627825 -644277 -659710 -672227 -559325 -561569 -566034 -572655
          -581284 -591625 -603145 -614994 -626059 -635255 -548757 -550575 -554169 -559438 -566205 -574172
          -582893 -591757 -600048 -607090 -539371 -540853 -543767 -548007 -553395 -559666 -566462 -573334
          -579792 -585385 -531355 -532580 -534980 -538454 -542837 -547904 -553366 -558884 -564104 -568704
          -524834 -525869 -527894 -530812 -534481 -538705 -543248 -547845 -552225 -556144 -519889 -520792
          -522555 -525090 -528270 -531925 -535855 -539841 -543665 -547131 -516570 -517389 -518986 -521282
          -524157 -527461 -531014 -534628 -538112 -541299 -514904 -515682 -517200 -519380 -522110 -525245
          -528620 -532056 -535379 -538433 -645768 -650047 -658636 -671579 -688895 -710519 -736221 -765506
          -797510 -830892 -644988 -649360 -658155 -671454 -689330 -711781 -738640 -769462 -803401 -839077
          -643315 -647858 -657031 -670996 -689941 -714012 -743192 -777170 -815176 -855761 -640550 -645302
          -654952 -669784 -690178 -716539 -749152 -788007 -832584 -881386 -636443 -641386 -651488 -667189
          -689136 -718127 -754971 -800289 -854273 -915576 -630766 -635806 -646169 -662445 -685562 -716787
          -757652 -809829 -875068 -952755 -623392 -628367 -638632 -654851 -678106 -709959 -752450 -808078
          -879998 -968174 -614375 -619090 -628810 -644143 -666062 -695921 -735322 -785680 -847302 -916246
          -603975 -608259 -617049 -630798 -650195 -676100 -709268 -749581 -794508 -838318 -592619 -596365
          -603995 -615776 -632063 -653184 -679124 -708879 -739615 -766992 -580816 -583992 -590406 -600164
          -613356 -629942 -649506 -670892 -691933 -709897 -569075 -571708 -576983 -584893 -595369 -608184
          -622814 -638270 -653070 -665551 -557843 -559998 -564283 -570629 -578891 -588782 -599806 -611202
          -621975 -631093 -547482 -549237 -552707 -557796 -564331 -572034 -580482 -589105 -597225 -604178
          -538262 -539698 -542523 -546635 -551865 -557962 -564583 -571300 -577638 -583147 -530377 -531566
          -533898 -537273 -541538 -546477 -551811 -557214 -562338 -566865 -523956 -524962 -526930 -529769
          -533341 -537461 -541901 -546404 -550703 -554560 -519084 -519961 -521675 -524142 -527238 -530804
          -534644 -538548 -542302 -545713 -515812 -516608 -518161 -520394 -523194 -526415 -529888 -533426
          -536846 -539985 -514170 -514926 -516401 -518522 -521179 -524236 -527533 -530898 -534160 -537169
          -643396 -647518 -655790 -668258 -684944 -705796 -730599 -758860 -789657 -821476 -642549 -646748
          -655191 -667955 -685114 -706679 -732514 -762209 -794898 -829033 -640759 -645096 -653847 -667154
          -685192 -708113 -735956 -768506 -805077 -844127 -637854 -642355 -651482 -665469 -684645 -709382
          -740016 -776712 -819207 -866205 -633625 -638269 -647731 -662358 -682664 -709310 -743049 -784652
          -834695 -892702 -627888 -632593 -642219 -657210 -678251 -706281 -742494 -788374 -845698 -915574
          -620554 -625185 -634680 -649524 -670475 -698590 -735245 -782210 -841801 -915999 -611686 -616083
          -625093 -639157 -658948 -685356 -719395 -761994 -813537 -872451 -601525 -605545 -613752 -626480
          -644203 -667467 -696684 -731702 -771065 -811151 -590456 -594003 -601203 -612255 -627403 -646836
          -670452 -697456 -725854 -752242 -578948 -581984 -588106 -597390 -609890 -625532 -643928 -664114
          -684319 -702067 -567478 -570019 -575105 -582724 -592805 -605132 -619224 -634201 -648718 -661136
          -556480 -558574 -562738 -568908 -576947 -586586 -597364 -608563 -619225 -628291 -546309 -548024
          -551414 -556391 -562794 -570356 -578676 -587200 -595254 -602149 -537241 -538647 -541416 -545451
          -550591 -556596 -563134 -569783 -576064 -581513 -529472 -530639 -532927 -536243 -540439 -545306
          -550573 -555916 -560985 -565455 -523139 -524126 -526057 -528846 -532359 -536417 -540796 -545241
          -549488 -553292 -518330 -519190 -520871 -523292 -526335 -529842 -533625 -537473 -541176 -544541
          -515099 -515878 -517400 -519590 -522339 -525505 -528921 -532405 -535777 -538873 -513476 -514217
          -515662 -517741 -520348 -523351 -526592 -529904 -533119 -536087 -641108 -645098 -653108 -665182
          -681349 -701563 -725619 -753019 -782790 -813260 -640217 -644274 -652433 -664768 -681356 -702224
          -727257 -756071 -787786 -820715 -638352 -642527 -650951 -663757 -681120 -703209 -730112 -761702
          -797379 -835571 -635363 -639677 -648417 -661801 -680141 -703818 -733239 -768732 -810311 -856969
          -631073 -635504 -644518 -658426 -677697 -702967 -735038 -774878 -823509 -881302 -625331 -629805
          -638941 -653124 -672957 -699293 -733290 -776519 -831098 -899338 -618070 -622473 -631479 -645504
          -665205 -691511 -725678 -769404 -825062 -895881 -609359 -613553 -622128 -635471 -654172 -679029
          -710996 -751036 -799722 -856148 -599419 -603277 -611144 -623322 -640249 -662449 -690378 -724066
          -762373 -801782 -588605 -592036 -598999 -609687 -624351 -643213 -666281 -692961 -721437 -748011
          -577352 -580313 -586286 -595359 -607611 -623023 -641308 -661623 -682209 -700238 -566114 -568608
          -573608 -581117 -591091 -603361 -617510 -632702 -647537 -660121 -555311 -557378 -561494 -567608
          -575606 -585251 -596111 -607474 -618322 -627450 -545299 -546997 -550358 -555304 -561688 -569264
          -577640 -586256 -594395 -601291 -536355 -537749 -540497 -544509 -549634 -555642 -562202 -568887
          -575192 -580614 -528681 -529837 -532107 -535401 -539578 -544434 -549699 -555042 -560102 -564535
          -522419 -523396 -525309 -528074 -531563 -535599 -539959 -544385 -548606 -552372 -517659 -518510
          -520172 -522569 -525583 -529062 -532815 -536635 -540305 -543632 -514460 -515230 -516733 -518898
          -521616 -524749 -528131 -531581 -534918 -537977 -512854 -513584 -515011 -517063 -519639 -522607
          -525812 -529088 -532267 -535200 -639053 -642942 -650749 -662521 -678290 -698015 -721496 -748227
          -777187 -806585 -638139 -642090 -650035 -662053 -678226 -698593 -723060 -751261 -782319 -814471
          -636237 -640297 -648489 -660950 -677866 -699429 -725782 -756888 -792283 -830517 -633214 -637402
          -645889 -658894 -676745 -699866 -728764 -763979 -805930 -854304 -628915 -633212 -641957 -655461
          -674213 -698909 -730507 -770317 -820105 -881800 -623210 -627551 -636419 -650202 -669530 -695339
          -728989 -772469 -828704 -901382 -616045 -620327 -629094 -642775 -662070 -688028 -722170 -766673
          -824578 -899547 -607488 -611586 -619980 -633082 -651560 -676388 -708870 -750532 -802421 -862804
          -597744 -601537 -609292 -621354 -638264 -660759 -689691 -725637 -767668 -810584 -587141 -590537
          -597452 -608129 -622927 -642279 -666534 -695509 -727357 -756626 -576092 -579040 -585009 -594132
          -606582 -622496 -641808 -663858 -686672 -706174 -565034 -567528 -572545 -580125 -590289 -602963
          -617839 -634120 -650178 -663434 -554380 -556452 -560590 -566770 -574914 -584839 -596151 -608123
          -619578 -628977 -544486 -546189 -549569 -554562 -561045 -568792 -577425 -586355 -594774 -601762
          -535634 -537031 -539790 -543830 -549012 -555114 -561807 -568642 -575064 -580502 -528029 -529186
          -531459 -534766 -538969 -543869 -549193 -554598 -559698 -564115 -521818 -522793 -524704 -527470
          -530965 -535014 -539392 -543835 -548058 -551798 -517095 -517942 -519597 -521987 -524995 -528468
          -532219 -536032 -539688 -542985 -513920 -514684 -516178 -518331 -521036 -524154 -527522 -530955
          -534269 -537299 -512324 -513049 -514465 -516504 -519063 -522013 -525199 -528453 -531607 -534510
          -637337 -641152 -648813 -660367 -675849 -695219 -718269 -744471 -772750 -801218 -636415 -640291
          -648089 -659889 -675780 -695808 -719886 -747645 -778184 -809677 -634503 -638488 -646531 -658779
          -675428 -696698 -722767 -753651 -788970 -827407 -631482 -635595 -643938 -656744 -674368 -697290
          -726114 -761556 -804392 -855107 -627209 -631437 -640053 -653393 -671999 -696674 -728579 -769409
          -821750 -889533 -621568 -625852 -634623 -648310 -667634 -693719 -728289 -774016 -835006 -916558
          -614509 -618755 -627474 -641160 -660654 -687304 -723227 -771692 -837350 -924341 -606094 -610181
          -618586 -631810 -650713 -676676 -711821 -759124 -821351 -894970 -596513 -600320 -608141 -620422
          -637926 -661846 -693921 -736212 -789085 -843588 -586075 -589502 -596518 -607464 -622908 -643690
          -670917 -705571 -746569 -784756 -575177 -578164 -584243 -593629 -606652 -623735 -645264 -671111
          -699211 -722803 -564246 -566778 -571895 -579693 -590296 -603790 -620074 -638487 -657092 -671934
          -553695 -555798 -560014 -566355 -574801 -585244 -597366 -610431 -623024 -633005 -543880 -545605
          -549040 -554142 -560815 -568867 -577936 -587401 -596313 -603505 -535086 -536499 -539293 -543400
          -548693 -554963 -561882 -568968 -575598 -581098 -527527 -528692 -530985 -534329 -538592 -543578
          -549011 -554529 -559710 -564136 -521349 -522328 -524248 -527031 -530554 -534642 -539068 -543555
          -547804 -551531 -516650 -517497 -519154 -521549 -524566 -528053 -531819 -535643 -539299 -542576
          -513489 -514253 -515745 -517895 -520599 -523718 -527084 -530513 -533816 -536824 -511901 -512624
          -514036 -516070 -518623 -521567 -524746 -527990 -531128 -534009 -636022 -639788 -647350 -658758
          -674044 -693162 -715884 -741634 -769257 -796754 -635102 -638930 -646633 -658294 -674005 -693807
          -717596 -744950 -774859 -805326 -633198 -637137 -645095 -657222 -673728 -694839 -720726 -751349
          -786160 -823494 -630198 -634273 -642548 -655271 -672825 -695727 -724612 -760167 -802942 -852715
          -625968 -630170 -638749 -652071 -670738 -695652 -728112 -769950 -823651 -892073 -620398 -624675
          -633454 -647220 -666807 -693553 -729569 -778161 -844183 -932303 -613439 -617700 -626484 -640371
          -660388 -688271 -726945 -781325 -858892 -964631 -605144 -609270 -617798 -631345 -651030 -678804
          -718069 -774636 -856489 -960907 -595689 -599554 -607542 -620232 -638681 -664745 -701673 -754844
          -830338 -917110 -585372 -588866 -596066 -607438 -623828 -646680 -678451 -723033 -784454 -853031
          -574576 -577629 -583880 -593645 -607460 -626155 -650901 -682870 -721118 -754953 -563727 -566316
          -571575 -579669 -590848 -605421 -623624 -645165 -667966 -685905 -553237 -555384 -559707 -566257
          -575085 -586182 -599346 -613891 -628145 -639086 -543467 -545224 -548732 -553972 -560880 -569305