<?xml version="1.0"?>
<VTKFile type="UnstructuredGrid" version="0.1" byte_order="LittleEndian">
  <UnstructuredGrid>
    <Piece NumberOfCells="3800" NumberOfPoints="4620">
      <CellData Scalars="p (Pa)">
        <DataArray type="Float32" Name="p (Pa)" NumberOfComponents="1" format="ascii">
          -401017 -401423 -402217 -403366 -404819 -406512 -408368 -410300 -412220 -414045 -400887 -401294
          -402090 -403242 -404700 -406399 -408260 -410199 -412125 -413954 -400622 -401031 -401831 -402989
          -404454 -406162 -408033 -409983 -411919 -413755 -400217 -400627 -401431 -402594 -404066 -405783
          -407665 -409625 -411571 -413413 -399662 -400073 -400878 -402043 -403519 -405240 -407128 -409093
          -411042 -412886 -398951 -399360 -400163 -401325 -402796 -404513 -406395 -408353 -410295 -412129
          -398081 -398487 -399281 -400431 -401887 -403585 -405446 -407382 -409301 -411110 -397057 -397455
          -398234 -399362 -400790 -402453 -404276 -406170 -408045 -409812 -395890 -396277 -397034 -398130
          -399515 -401128 -402893 -404726 -406538 -408245 -394602 -394974 -395703 -396756 -398086 -399633
          -401324 -403078 -404811 -406443 -393221 -393576 -394270 -395273 -396539 -398009 -399613 -401274
          -402915 -404460 -391785 -392121 -392778 -393725 -394919 -396304 -397813 -399374 -400915 -402367
          -390339 -390654 -391271 -392160 -393280 -394576 -395987 -397445 -398884 -400242 -388928 -389224
          -389801 -390632 -391678 -392886 -394201 -395559 -396900 -398166 -387604 -387880 -388420 -389196
          -390171 -391298 -392522 -393788 -395037 -396219 -386413 -386672 -387177 -387904 -388816 -389869
          -391014 -392197 -393366 -394475 -385401 -385645 -386121 -386805 -387664 -388655 -389733 -390847
          -391949 -392997 -384605 -384837 -385290 -385942 -386759 -387702 -388727 -389788 -390839 -391840
          -384057 -384281 -384718 -385347 -386135 -387046 -388035 -389059 -390075 -391045 -383777 -383997
          -384426 -385043 -385817 -386711 -387683 -388688 -389687 -390640 -402400 -402825 -403657 -404862
          -406387 -408163 -410109 -412134 -414142 -416043 -402272 -402698 -403534 -404743 -406274 -408058
          -410013 -412048 -414065 -415973 -402011 -402440 -403281 -404498 -406039 -407837 -409807 -411858
          -413890 -415810 -401610 -402041 -402887 -404113 -405666 -407477 -409464 -411532 -413582 -415515
          -401058 -401491 -402340 -403571 -405131 -406953 -408951 -411032 -413092 -415033 -400347 -400780
          -401628 -402858 -404417 -406237 -408235 -410315 -412374 -414310 -399474 -399903 -400744 -401963
          -403508 -405312 -407291 -409351 -411389 -413303 -398441 -398862 -399688 -400884 -402400 -404169
          -406109 -408125 -410118 -411988 -397259 -397669 -398471 -399633 -401105 -402819 -404696 -406646
          -408571 -410375 -395949 -396343 -397115 -398232 -399644 -401287 -403083 -404945 -406780 -408501
          -394541 -394917 -395652 -396714 -398056 -399613 -401313 -403072 -404804 -406427 -393073 -393428
          -394123 -395125 -396387 -397851 -399446 -401093 -402713 -404232 -391591 -391925 -392575 -393514
          -394694 -396061 -397547 -399079 -400586 -402000 -390144 -390455 -391063 -391938 -393037 -394307
          -395687 -397108 -398506 -399819 -388783 -389073 -389639 -390453 -391476 -392656 -393936 -395255
          -396552 -397773 -387557 -387828 -388357 -389117 -390070 -391170 -392362 -393590 -394799 -395940
          -386514 -386769 -387266 -387979 -388874 -389906 -391024 -392177 -393313 -394387 -385694 -385936
          -386407 -387085 -387934 -388912 -389973 -391068 -392148 -393172 -385128 -385361 -385815 -386468
          -387286 -388228 -389250 -390305 -391347 -392337 -384840 -385068 -385514 -386153 -386955 -387879
          -388882 -389917 -390940 -391913 -405129 -405594 -406505 -407825 -409496 -411444 -413578 -415795
          -417986 -420045 -405006 -405473 -406389 -407716 -409398 -411359 -413508 -415742 -417949 -420021
          -404754 -405225 -406149 -407489 -409188 -411172 -413348 -415611 -417846 -419943 -404361 -404837
          -405771 -407126 -408845 -410855 -413062 -415359 -417629 -419754 -403817 -404296 -405238 -406604
          -408340 -410371 -412604 -414930 -417229 -419379 -403108 -403589 -404532 -405902 -407644 -409684
          -411928 -414267 -416578 -418737 -402228 -402706 -403644 -405006 -406738 -408765 -410996 -413321
          -415618 -417761 -401177 -401647 -402570 -403910 -405611 -407603 -409791 -412070 -414318 -416413
          -399965 -400423 -401320 -402622 -404273 -406203 -408319 -410518 -412685 -414701 -398612 -399053
          -399916 -401165 -402748 -404593 -406612 -408704 -410760 -412672 -397150 -397569 -398390 -399576
          -401076 -402819 -404722 -406687 -408614 -410403 -395618 -396013 -396786 -397901 -399308 -400939
          -402714 -404541 -406330 -407990 -394064 -394434 -395156 -396196 -397506 -399020 -400663 -402351
          -404000 -405532 -392542 -392885 -393556 -394522 -395735 -397134 -398649 -400203 -401719 -403128
          -391105 -391424 -392046 -392940 -394061 -395353 -396749 -398179 -399575 -400875 -389809 -390105
          -390683 -391512 -392551 -393746 -395037 -396359 -397651 -398856 -388703 -388980 -389520 -390294
          -391264 -392378 -393581 -394814 -396019 -397148 -387832 -388094 -388604 -389335 -390250 -391302
          -392437 -393601 -394741 -395811 -387231 -387483 -387972 -388674 -389552 -390560 -391649 -392766
          -393862 -394894 -386925 -387170 -387649 -388336 -389195 -390182 -391248 -392341 -393415 -394427
          -409210 -409737 -410771 -412270 -414172 -416392 -418824 -421348 -423830 -426141 -409095 -409626
          -410668 -412179 -414098 -416340 -418799 -421352 -423864 -426201 -408856 -409394 -410450 -411983
          -413932 -416213 -418720 -421326 -423892 -426278 -408480 -409026 -410098 -411657 -413643 -415971
          -418536 -421208 -423842 -426287 -407948 -408501 -409588 -411170 -413189 -415561 -418179 -420912
          -423611 -426115 -407245 -407801 -408896 -410492 -412529 -414927 -417578 -420350 -423090 -425632
          -406356 -406912 -408005 -409597 -411631 -414026 -416674 -419445 -422185 -424725 -405280 -405828
          -406906 -408476 -410479 -412835 -415438 -418158 -420842 -423329 -404024 -404558 -405607 -407133
          -409078 -411359 -413873 -416491 -419068 -421449 -402607 -403121 -404129 -405593 -407454 -409630
          -412017 -414493 -416920 -419155 -401062 -401550 -402507 -403894 -405652 -407698 -409933 -412240
          -414491 -416558 -399432 -399891 -400790 -402089 -403729 -405632 -407702 -409826 -411890 -413782
          -397768 -398196 -399032 -400238 -401756 -403510 -405409 -407351 -409231 -410952 -396130 -396526
          -397298 -398410 -399806 -401414 -403148 -404916 -406623 -408186 -394577 -394942 -395653 -396676
          -397956 -399426 -401009 -402618 -404171 -405594 -393171 -393508 -394163 -395104 -396280 -397629
          -399077 -400549 -401970 -403276 -391969 -392281 -392889 -393760 -394849 -396095 -397432 -398791
          -400104 -401316 -391020 -391313 -391883 -392700 -393720 -394886 -396138 -397410 -398643 -399783
          -390364 -390644 -391188 -391968 -392940 -394052 -395246 -396461 -397639 -398733 -390029 -390302
          -390833 -391594 -392542 -393627 -394791 -395977 -397128 -398198 -414646 -415260 -416466 -418219
          -420447 -423054 -425915 -428881 -431785 -434463 -414543 -415163 -416382 -418155 -420412 -423056
          -425963 -428981 -431940 -434665 -414326 -414957 -416198 -418007 -420315 -423027 -426018 -429132
          -432191 -435008 -413974 -414618 -415888 -417741 -420112 -422907 -426003 -429240 -432430 -435368
          -413463 -414121 -415416 -417311 -419742 -422618 -425816 -429175 -432498 -435564 -412770 -413435
          -414749 -416672 -419144 -422076 -425346 -428794 -432217 -435381 -411873 -412541 -413858 -415787
          -418268 -421213 -424501 -427972 -431424 -434619 -410766 -411427 -412730 -414637 -417088 -419992
          -423229 -426640 -430026 -433155 -409452 -410097 -411367 -413224 -415603 -418413 -421532 -424803
          -428032 -431004 -407950 -408571 -409792 -411571 -413844 -416515 -419461 -422529 -425536 -428286
          -406294 -406883 -408041 -409723 -411861 -414361 -417099 -419926 -422675 -425172 -404531 -405083
          -406167 -407736 -409723 -412032 -414544 -417117 -419598 -421839 -402717 -403230 -404233 -405682
          -407509 -409620 -411902 -414223 -416446 -418445 -400919 -401390 -402312 -403639 -405305 -407222
          -409282 -411366 -413353 -415136 -399205 -399637 -400479 -401689 -403202 -404937 -406793 -408664
          -410444 -412042 -397647 -398042 -398811 -399914 -401290 -402862 -404540 -406228 -407834 -409278
          -396309 -396673 -397379 -398390 -399650 -401086 -402617 -404156 -405622 -406947 -395251 -395589
          -396246 -397186 -398355 -399686 -401104 -402530 -403892 -405127 -394518 -394839 -395462 -396352
          -397459 -398718 -400060 -401411 -402704 -403881 -394144 -394455 -395061 -395926 -397001 -398225
          -399528 -400841 -402099 -403248 -421437 -422166 -423600 -425690 -428356 -431487 -434932 -438506
          -441994 -445177 -421350 -422089 -423543 -425665 -428378 -431571 -435095 -438760 -442344 -445615
          -421163 -421919 -423409 -425590 -428387 -431694 -435361 -439197 -442965 -446406 -420847 -421625
          -423160 -425413 -428316 -431766 -435619 -439678 -443692 -447370 -420369 -421167 -422747 -425071
          -428078 -431671 -435711 -440002 -444282 -448227 -419694 -420508 -422121 -424498 -427582 -431282
          -435464 -439937 -444433 -448609 -418793 -419614 -421240 -423638 -426751 -430492 -434729 -439272
          -443858 -448139 -417651 -418466 -420081 -422460 -425544 -429243 -433421 -437890 -442390 -446582
          -416267 -417065 -418642 -420961 -423957 -427533 -431547 -435806 -440056 -443982 -414660 -415428
          -416945 -419168 -422025 -425412 -429180 -433134 -437028 -440580 -412864 -413594 -415030 -417128
          -419809 -422963 -426435 -430032 -433526 -436669 -410931 -411613 -412956 -414907 -417387 -420281
          -423436 -426664 -429755 -432502 -408923 -409555 -410793 -412586 -414852 -417477 -420312 -423180
          -425896 -428286 -406917 -407495 -408625 -410256 -412306 -414665 -417193 -419729 -422110 -424192
          -404993 -405518 -406542 -408015 -409859 -411968 -414214 -416454 -418548 -420376 -403234 -403710
          -404636 -405965 -407621 -409508 -411508 -413496 -415353 -416978 -401719 -402151 -402994 -404198
          -405695 -407395 -409194 -410979 -412649 -414118 -400516 -400915 -401690 -402797 -404170 -405726
          -407370 -409004 -410536 -411891 -399681 -400057 -400786 -401826 -403114 -404573 -406114 -407646
          -409087 -410370 -399254 -399618 -400324 -401329 -402575 -403984 -405473 -406955 -408351 -409598
          -429569 -430444 -432169 -434692 -437926 -441741 -445958 -450342 -454614 -458473 -429506 -430396
          -432152 -434725 -438032 -441949 -446296 -450836 -455276 -459291 -429360 -430276 -432088 -434753
          -438195 -442299 -446890 -451727 -456494 -460822 -429094 -430044 -431927 -434707 -438321 -442664
          -447575 -452812 -458038 -462824 -428663 -429646 -431599 -434495 -438282 -442871 -448115 -453784
          -459529 -464870 -428018 -429027 -431037 -434024 -437945 -442726 -448235 -454258 -460456 -466323
          -427119 -428142 -430180 -433212 -437197 -442064 -447690 -453873 -460289 -466441 -425941 -426962
          -428994 -432013 -435974 -440798 -446355 -452436 -458722 -464728 -424478 -425480 -427471 -430420
          -434271 -438930 -444246 -449993 -455844 -461340 -422747 -423714 -425631 -428460 -432131 -436531
          -441487 -446753 -451999 -456811 -420782 -421701 -423519 -426188 -429627 -433707 -438237 -442961
          -447556 -451665 -418640 -419500 -421196 -423676 -426848 -430573 -434653 -438830 -442803 -446271
          -416392 -417186 -418746 -421016 -423900 -427255 -430883 -434538 -437951 -440873 -414126 -414848
          -416265 -418317 -420905 -423890 -427084 -430261 -433188 -435663 -411936 -412587 -413861 -415697
          -418000 -420634 -423428 -426183 -428702 -430824 -409922 -410506 -411647 -413283 -415325 -417645
          -420091 -422491 -424680 -426529 -408179 -408705 -409729 -411194 -413013 -415071 -417232 -419348
          -421282 -422927 -406791 -407271 -408203 -409532 -411178 -413034 -414980 -416885 -418634 -420134
          -405827 -406274 -407143 -408379 -409906 -411627 -413428 -415195 -416823 -418231 -405333 -405764
          -406599 -407789 -409256 -410908 -412638 -414336 -415905 -417268 -439016 -440071 -442155 -445216
          -449162 -453847 -459056 -464494 -469789 -474533 -438984 -440059 -442190 -445327 -449387 -454233
          -459655 -465353 -470936 -475949 -438892 -440007 -442222 -445499 -449770 -454915 -460741 -466947
          -473105 -478679 -438692 -439858 -442180 -445636 -450178 -455716 -462085 -468996 -475996 -482441
          -438325 -439542 -441973 -445611 -450432 -456379 -463328 -471032 -479041 -486634 -437725 -438984
          -441505 -445290 -450335 -456610 -464034 -472414 -481359 -490155 -436838 -438121 -440694 -444561
          -449722 -456158 -463804 -472504 -481934 -491471 -435626 -436913 -439490 -443357 -448505 -454898
          -462452 -470990 -480184 -489422 -434077 -435345 -437879 -441668 -446681 -452849 -460040 -468017
          -476394 -484544 -432204 -433432 -435880 -439523 -444306 -450121 -456781 -463984 -471288 -478096
          -430043 -431213 -433539 -436982 -441466 -446850 -452901 -459271 -465496 -471039 -427653 -428750
          -430923 -434124 -438258 -443163 -448579 -454140 -459388 -463862 -425116 -426127 -428124 -431049
          -434796 -439191 -443968 -448766 -453167 -456790 -422531 -423448 -425254 -427883 -431223 -435097
          -439248 -443346 -447029 -449998 -420013 -420834 -422445 -424776 -427714 -431085 -434655 -438134
          -441227 -443703 -417683 -418412 -419838 -421890 -424456 -427375 -430437 -433400 -436026 -438137
          -415657 -416305 -417569 -419379 -421629 -424170 -426819 -429375 -431647 -433495 -414039 -414623
          -415758 -417377 -419380 -421632 -423972 -426231 -428250 -429916 -412911 -413451 -414497 -415986
          -417822 -419880 -422016 -424081 -425939 -427490 -412333 -412850 -413851 -415274 -417025 -418986
          -421021 -422991 -424770 -426265 -449727 -450996 -453510 -457221 -462035 -467792 -474242 -481012
          -487612 -493479 -449732 -451031 -453613 -457435 -462421 -468427 -475214 -482409 -489486 -495801
          -449708 -451064 -453768 -457798 -463103 -469579 -477020 -485064 -493126 -500412 -449594 -451022
          -453883 -458180 -463903 -471005 -479349 -488619 -498202 -507109 -449309 -450813 -453837 -458410
          -464569 -472337 -481676 -492384 -503915 -515170 -448771 -450338 -453499 -458301 -464817 -473128
          -483295 -495272 -508727 -522747 -447906 -449515 -452761 -457699 -464411 -472994 -483546 -496111
          -510583 -526521 -446665 -448287 -451556 -456518 -463236 -471776 -482183 -494441 -508400 -523587
          -445025 -446632 -449861 -454742 -461302 -469539 -479391 -490678 -503030 -515731 -442996 -444560
          -447695 -452409 -458688 -466460 -475544 -485587 -496011 -505975 -440612 -442109 -445102 -449579
          -455489 -462704 -470948 -479742 -488377 -496015 -437936 -439343 -442150 -446327 -451796 -458385
          -465766 -473390 -480503 -486336 -435058 -436356 -438937 -442756 -447713 -453609 -460092 -466608
          -472438 -476933 -432093 -433268 -435593 -439011 -443404 -448558 -454122 -459585 -464336 -467877
          -429179 -430224 -432282 -435285 -439102 -443518 -448207 -452729 -456605 -459475 -426464 -427382
          -429183 -431790 -435070 -438816 -442740 -446483 -449682 -452079 -424092 -424898 -426473 -428736
          -431556 -434745 -438053 -441195 -443896 -445963 -422192 -422908 -424302 -426294 -428760 -431527
          -434382 -437094 -439447 -441291 -420866 -421520 -422790 -424597 -426823 -429311 -431871 -434308
          -436442 -438148 -420185 -420807 -422014 -423728 -425834 -428183 -430599 -432902 -434931 -436571
          -461623 -463138 -466151 -470619 -476455 -483493 -491442 -499844 -508052 -515294 -461672 -463230
          -466336 -470963 -477049 -484456 -492925 -501998 -510968 -518917 -461729 -463365 -466643 -471566
          -478121 -486241 -495739 -506191 -516801 -526352 -461715 -463453 -466954 -472263 -479440 -488531
          -499495 -512042 -525344 -537783 -461531 -463376 -467110 -472824 -480661 -490807 -503446 -518584
          -535621 -552723 -461070 -463008 -466942 -472998 -481382 -492398 -506449 -523940 -544916 -568269
          -460240 -462241 -466308 -472577 -481268 -492712 -507364 -525803 -548684 -576861 -458974 -461003
          -465123 -471455 -480189 -491584 -505968 -523734 -545351 -571434 -457241 -459263 -463358 -469622
          -478186 -489190 -502737 -518824 -537272 -557594 -455043 -457025 -461028 -467121 -475375 -485811
          -498310 -512480 -527545 -542340 -452412 -454322 -458172 -464005 -471847 -481629 -493068 -505490
          -517710 -528279 -449411 -451218 -454851 -460332 -467648 -476675 -487030 -497885 -507840 -515359
          -446140 -447811 -451161 -456188 -462843 -470950 -480074 -489343 -497379 -502797 -442731 -444240
          -447252 -451738 -457607 -464638 -472369 -479979 -486321 -490406 -439348 -440682 -443328 -447230
          -452265 -458180 -464529 -470617 -475594 -478825 -436175 -437334 -439622 -442960 -447204 -452099
          -457244 -462094 -466055 -468717 -433389 -434394 -436363 -439210 -442780 -446835 -451036 -454963
          -458204 -460482 -431152 -432031 -433748 -436209 -439264 -442695 -446217 -449508 -452264 -454286
          -429588 -430382 -431925 -434124 -436836 -439859 -442950 -445844 -448304 -450170 -428784 -429534
          -430989 -433058 -435598 -438422 -441304 -444010 -446329 -448119 -474589 -476379 -479949 -485269
          -492263 -500764 -510451 -520767 -530874 -539726 -474689 -476535 -480230 -485766 -493105 -502135
          -512587 -523916 -535184 -545081 -474836 -476787 -480713 -486654 -494653 -504717 -516722 -530215
          -544104 -556478 -474936 -477024 -481252 -487727 -496616 -508128 -522439 -539420 -557976 -575192
          -474865 -477098 -481647 -488691 -498540 -511670 -528739 -550365 -576121 -602155 -474492 -476854
          -481684 -489217 -499871 -514347 -533776 -559795 -593834 -633436 -473702 -476158 -481185 -489034
          -500145 -515240 -535473 -562599 -599033 -648673 -472413 -474920 -480044 -488021 -499235 -514267
          -533961 -559504 -592640 -636755 -470582 -473098 -478231 -486182 -497252 -511828 -530323 -553084
          -580306 -612167 -468202 -470689 -475753 -483566 -494358 -508350 -525591 -545681 -567438 -589010
          -465300 -467718 -472637 -480207 -490617 -503989 -520154 -538200 -555914 -570205 -461939 -464243
          -468924 -476116 -485971 -498563 -513619 -529969 -544748 -553888 -458222 -460363 -464701 -471336
          -480367 -491788 -505225 -519401 -531390 -537185 -454303 -456235 -460132 -466041 -473976 -483805
          -495010 -506298 -515288 -519495 -450378 -452075 -455473 -460563 -467271 -475356 -484241 -492813
          -499438 -502789 -446671 -448131 -451031 -455316 -460847 -467335 -474238 -480704 -485696 -488502
          -443404 -444650 -447108 -450690 -455228 -460430 -465837 -470827 -474745 -477176 -440772 -441849
          -443956 -446992 -450781 -455052 -459428 -463452 -466688 -468863 -438932 -439891 -441758 -444427
          -447725 -451403 -455143 -458591 -461425 -463439 -437986 -438885 -440631 -443117 -446173 -449565
          -453004 -456184 -458830 -460767 -488482 -490567 -494736 -500972 -509215 -519307 -530898 -543334
          -555560 -566201 -488633 -490790 -495118 -501633 -510331 -521134 -533781 -547654 -561544 -573623
          -488875 -491165 -495789 -502831 -512406 -524624 -539478 -556548 -574411 -590056 -489093 -491558
          -496574 -504319 -515096 -529352 -547636 -570256 -595967 -619277 -489138 -491792 -497228 -505735
          -517836 -534445 -557080 -587908 -627935 -667721 -488853 -491679 -497492 -506663 -519894 -538494
          -564994 -604374 -664812 -736458 -488100 -491056 -497146 -506767 -520647 -540084 -567412 -606727
          -663876 -740313 -486779 -489818 -496071 -505918 -520007 -539382 -565679 -601366 -649833 -715698
          -484835 -487911 -494231 -504142 -518193 -537147 -561927 -593417 -632064 -677824 -482254 -485324
          -491627 -501496 -515422 -533997 -557675 -586160 -617328 -647051 -479055 -482070 -488266 -497977
          -511697 -530005 -553232 -580466 -607388 -625538 -475296 -478194 -484154 -493510 -506770 -524564
          -547334 -574145 -599195 -607948 -471084 -473791 -479350 -488055 -500349 -516758 -537585 -561733
          -583189 -585931 -466592 -469037 -474031 -481779 -492550 -506554 -523538 -541736 -556006 -558526
          -462055 -464190 -468515 -475121 -484080 -495287 -508122 -520845 -530156 -532840 -457744 -459562
          -463206 -468672 -475879 -484546 -493983 -502855 -509279 -511895 -453932 -455463 -458500 -462975
          -468724 -475412 -482431 -488853 -493613 -496055 -450857 -452159 -454719 -458432 -463106 -468411
          -473852 -478790 -482581 -484849 -448706 -449850 -452086 -455294 -459275 -463724 -468235 -472334
          -475583 -477720 -447599 -448665 -450738 -453697 -457341 -461385 -465466 -469186 -472190 -474259
          -503124 -505515 -510302 -517482 -527008 -538726 -552265 -566877 -581301 -593828 -503326 -505804
          -510784 -518304 -528390 -540994 -555871 -572339 -588941 -603301 -503658 -506299 -511640 -519806
          -530979 -545368 -563097 -583832 -605897 -625040 -503986 -506841 -512664 -521702 -534385 -551398
          -573725 -602362 -636478 -667298 -504136 -507224 -513571 -523566 -537946 -558080 -586579 -628358
          -690368 -755632 -503922 -507228 -514055 -524907 -540770 -563635 -598018 -656589 -790483 -1.00804e+06
          -503183 -506662 -513860 -525323 -542080 -566072 -601157 -655453 -744819 -869084 -501803 -505404
          -512852 -524683 -541844 -565913 -599513 -646894 -713854 -802607 -499715 -503391 -510990 -523038
          -540395 -564325 -596477 -638526 -690916 -750765 -496898 -500602 -508270 -520447 -538005 -562143
          -594143 -634290 -678910 -717448 -493362 -497038 -504670 -516858 -534598 -559346 -592842 -635588
          -680495 -700965 -489160 -492726 -500152 -512084 -529653 -554703 -590036 -638626 -694361 -690943
          -484405 -487755 -494734 -505952 -522489 -546126 -579639 -626410 -682238 -661501 -479287 -482315
          -488592 -498587 -513073 -533118 -559699 -591660 -618798 -612840 -474080 -476712 -482114 -490556
          -502408 -517964 -536872 -556666 -570671 -570540 -469111 -471330 -475825 -482689 -491974 -503512
          -516508 -528932 -537334 -539028 -464706 -466551 -470238 -475739 -482928 -491456 -500552 -508850
          -514615 -516801 -461152 -462699 -465754 -470223 -475904 -482419 -489136 -495166 -499568 -501824
          -458666 -460009 -462640 -466433 -471165 -476478 -481859 -486688 -490376 -492592 -457388 -458629
          -461048 -464512 -468790 -473545 -478329 -482636 -486011 -488189 -518318 -521017 -526423 -534538
          -545319 -558605 -573995 -590661 -607179 -621588 -518566 -521366 -526995 -535502 -546926 -561227
          -578146 -596933 -615947 -632474 -518977 -521966 -528015 -537270 -549945 -566292 -586467 -610108
          -635338 -657412 -519397 -522636 -529247 -539517 -553939 -573297 -598693 -631173 -669682 -705279
          -519622 -523138 -530368 -541764 -558170 -581126 -613441 -659910 -725825 -799590 -519440 -523218
          -531029 -543461 -561657 -587846 -626721 -689110 -801487 -1.01153e+06 -518665 -522661 -530942 -544168
          -563572 -591451 -632296 -695426 -800661 -986516 -517167 -521328 -529959 -543738 -563866 -592351
          -632532 -689854 -772143 -883887 -514872 -519149 -528034 -542233 -562935 -591945 -631734 -684960
          -752181 -826528 -511752 -516099 -525156 -539713 -561093 -591293 -632898 -687797 -751507 -801050
          -507817 -512167 -521281 -536078 -558194 -590359 -636891 -703186 -785280 -805570 -503117 -507370
          -516329 -531032 -553454 -587326 -640308 -731045 -918321 -830096 -497768 -501787 -510269 -524249
          -545734 -578601 -631128 -726779 -989341 -782552 -491982 -495620 -503267 -515771 -534706 -562784
          -604161 -662307 -722752 -686030 -486071 -489221 -495768 -506247 -521525 -542716 -570407 -601609
          -623159 -615540 -480416 -483048 -488436 -496817 -508477 -523523 -541204 -558540 -569351 -568859
          -475400 -477563 -481918 -488500 -497264 -507901 -519486 -530070 -536900 -538441 -471356 -473146
          -476700 -481942 -488681 -496503 -504632 -511872 -516886 -519001 -468529 -470066 -473088 -477467
          -482963 -489165 -495457 -501045 -505163 -507411 -467077 -468489 -471247 -475208 -480119 -485589
          -491084 -495982 -499719 -501983 -533852 -536856 -542871 -551892 -563864 -578604 -595668 -614166
          -632579 -648811 -534138 -537255 -543520 -552975 -565647 -581473 -600149 -620859 -641875 -660364
          -534612 -537943 -544678 -554960 -568994 -587000 -609074 -634762 -662100 -686375 -535095 -538710
          -546076 -557483 -573418 -594615 -622050 -656502 -696631 -734132 -535352 -539281 -547348 -560015
          -578123 -603132 -637531 -685115 -748877 -817529 -535138 -539368 -548103 -561960 -582094 -610643
          -651717 -713408 -809783 -943914 -534245 -538731 -548026 -562845 -584501 -615328 -659603 -725234
          -825187 -964982 -532530 -537218 -546951 -562511 -585261 -617446 -662676 -726475 -815629 -930203
          -529919 -534759 -544837 -561016 -584762 -618340 -664942 -728183 -809064 -897222 -526391 -531331
          -541671 -558419 -583318 -619106 -669645 -738771 -823471 -894039 -521960 -526928 -537401 -554597
          -580738 -619663 -677688 -763517 -877028 -934351 -516683 -521563 -531927 -549190 -576112 -617957
          -685039 -798819 -1.01194e+06 -1.04063e+06 -510689 -515317 -525187 -541774 -568053 -609904 -678588 -790832
          -928972 -868825 -504208 -508402 -517326 -532262 -555823 -593217 -654517 -753120 -837910 -758467
          -497587 -501207 -508818 -521265 -540086 -567730 -606855 -654347 -681069 -661118 -491257 -494261
          -500467 -510282 -524306 -543107 -566246 -589554 -602095 -598069 -485651 -488096 -493053 -500631
          -510896 -523637 -537831 -550841 -558511 -559053 -481138 -483142 -487140 -493078 -500789 -509843
          -519340 -527750 -533281 -535161 -477988 -479696 -483061 -487959 -494138 -501151 -508280 -514567
          -519063 -521315 -476373 -477934 -480988 -485386 -490856 -496965 -503101 -508532 -512592 -514930
          -549500 -552808 -559424 -569327 -582431 -598507 -617063 -637165 -657273 -675270 -549818 -553253
          -560145 -570518 -584361 -601553 -621723 -644001 -666676 -686980 -550341 -554014 -561425 -572694
          -587974 -607396 -630935 -658054 -686893 -713105 -550856 -554845 -562953 -575444 -592730 -615401
          -644200 -679714 -720919 -760931 -551089 -555428 -564310 -578172 -597764 -624329 -659948 -707992
          -772497 -849076 -550759 -555430 -565048 -580216 -602008 -632314 -674709 -736729 -836922 -1.03728e+06
          -549630 -554580 -564815 -581064 -604612 -637651 -684062 -750981 -850782 -992136 -547556 -552723
          -563442 -580548 -605475 -640537 -689410 -757732 -852712 -974940 -544474 -549801 -560901 -578739
          -604962 -642153 -694098 -765618 -859883 -966391 -540383 -545814 -557203 -575711 -603372 -643465
          -700877 -781568 -887117 -990622 -535321 -540778 -552315 -571354 -600518 -644355 -710227 -807720
          -938103 -1.05316e+06 -529368 -534726 -546151 -565326 -595567 -643170 -719486 -839913 -992744 -1.05049e+06
          -522671 -527752 -538653 -557186 -587178 -636697 -722597 -869764 -986532 -922416 -515484 -520086
          -529950 -546727 -574100 -620953 -713609 -967985 -1.02201e+06 -822532 -508182 -512143 -520528 -534440
          -556070 -589573 -641882 -716023 -739248 -699027 -501231 -504503 -511296 -522156 -537964 -559813
          -587938 -617444 -630005 -621748 -495098 -497746 -503134 -511428 -522787 -537113 -553375 -568371
          -576425 -576009 -490176 -492335 -496650 -503088 -511499 -521452 -531962 -541248 -547125 -548832
          -486748 -488580 -492194 -497466 -504140 -511740 -519483 -526289 -531073 -533360 -484993 -486662
          -489933 -494650 -500528 -507104 -513712 -519545 -523863 -526291 -565023 -568641 -575866 -586651
          -600863 -618207 -638121 -659644 -681274 -700994 -565371 -569133 -576666 -587967 -602962 -621436
          -642911 -666463 -690453 -712365 -565932 -569964 -578080 -590364 -606882 -627607 -652303 -680271
          -709744 -737054 -566455 -570843 -579739 -593363 -612008 -635997 -665639 -701002 -740787 -779503
          -566610 -571387 -581138 -596259 -617348 -645248 -681221 -727146 -784323 -846634 -566066 -571196
          -581735 -598253 -621666 -653391 -695818 -753397 -833308 -937775 -564556 -569964 -581121 -598742
          -623999 -658726 -705917 -770624 -859907 -974291 -561941 -567541 -579141 -597585 -624277 -661404
          -712350 -782211 -877051 -995602 -558190 -563913 -575825 -594929 -622926 -662501 -717738 -794391
          -897922 -1.01874e+06 -553346 -559129 -571247 -590914 -620273 -662844 -724158 -812044 -932822 -1.05819e+06
          -547491 -553254 -565427 -585488 -616174 -662270 -731627 -834562 -970456 -1.06456e+06 -540745 -546362
          -558328 -578374 -609922 -659485 -738798 -863035 -1.0116e+06 -1.03109e+06 -533289 -538585 -549934 -569197
          -600321 -651755 -741817 -901363 -1.04492e+06 -940171 -525401 -530179 -540405 -557773 -586079 -634635
          -731938 -1.01168e+06 -975325 -830031 -517479 -521578 -530248 -544611 -566908 -601412 -655306 -731279