<?xml version="1.0"?>
<VTKFile type="UnstructuredGrid" version="0.1" byte_order="LittleEndian">
  <UnstructuredGrid>
    <Piece NumberOfCells="3800" NumberOfPoints="4620">
      <CellData Scalars="p (Pa)">
        <DataArray type="Float32" Name="p (Pa)" NumberOfComponents="1" format="ascii">
          -799982 -820546 -836712 -846649 -847002 -834810 -817955 -802602 -791569 -785894 -811556 -832363
          -847968 -856764 -855572 -840342 -821264 -804613 -792878 -786891 -835827 -857216 -870914 -875208
          -867836 -848553 -826572 -807932 -794982 -788421 -875169 -898783 -910061 -907695 -890358 -862171
          -834195 -811977 -797048 -789596 -931944 -962038 -971128 -960064 -927375 -881854 -843149 -815341
          -797645 -789022 -1.00378e+06 -1.04593e+06 -1.05154e+06 -1.02572e+06 -971853 -900824 -849026 -815183 -794677 -784902
          -1.07315e+06 -1.113e+06 -1.11245e+06 -1.05964e+06 -978159 -900108 -844467 -808080 -786075 -775628 -1.10766e+06 -1.06556e+06
          -1.11023e+06 -1.04619e+06 -957430 -882564 -828911 -793047 -771073 -760598 -1.07825e+06 -1.11532e+06 -1.06581e+06 -989725
          -913721 -850361 -803112 -770431 -750003 -740182 -1.06282e+06 -1.04701e+06 -975102 -910408 -854426 -806621
          -768883 -741589 -724057 -715511 -1.04218e+06 -949687 -881354 -831761 -791913 -757943 -730094 -709108
          -695215 -688325 -893901 -841734 -797264 -762961 -735103 -711374 -691582 -676265 -665879 -660648
          -784386 -756320 -729229 -706346 -687033 -670460 -656538 -645617 -638103 -634279 -708310 -692759
          -676214 -661079 -647743 -636132 -626324 -618582 -613215 -610468 -654128 -645538 -635438 -625487
          -616317 -608164 -601218 -595708 -591874 -589906 -615094 -610569 -604493 -598007 -591723 -585981
          -581022 -577062 -574296 -572872 -587313 -585163 -581594 -577390 -573072 -568988 -565394 -562495
          -560459 -559408 -568298 -567501 -565452 -562698 -559668 -556685 -553997 -551800 -550246 -549442
          -556430 -556357 -555166 -553262 -551006 -548692 -546556 -544787 -543527 -542872 -550728 -550968
          -550161 -548650 -546756 -544758 -542884 -541317 -540195 -539610 -827843 -854371 -879218 -900001
          -908169 -888968 -863077 -841366 -826685 -819382 -839450 -866109 -890897 -912400 -922780 -896281
          -866426 -843105 -827760 -820195 -863576 -889891 -911822 -926202 -925225 -899109 -869150 -845140
          -829160 -821235 -902582 -929345 -948362 -954744 -940804 -907110 -873253 -847132 -829958 -821440
          -958683 -989198 -1.00826e+06 -1.00878e+06 -980618 -923939 -878565 -847665 -828443 -819054 -1.0282e+06 -1.06748e+06
          -1.08575e+06 -1.06481e+06 -1.04634e+06 -941341 -879491 -843136 -821880 -811698 -1.08909e+06 -1.1259e+06 -1.10238e+06 -1.06825e+06
          -1.0101e+06 -923420 -865313 -829229 -807755 -797482 -1.10517e+06 -1.06006e+06 -1.11009e+06 -1.04494e+06 -960113 -888886
          -839224 -806499 -786411 -776736 -1.06382e+06 -1.0632e+06 -1.04264e+06 -969557 -900479 -845554 -805259 -777330
          -759684 -751101 -1.05309e+06 -1.00987e+06 -947219 -888039 -838296 -798008 -766903 -744381 -729765 -722568
          -941566 -902405 -854886 -813683 -779228 -750555 -727535 -710276 -698801 -693078 -830213 -806840
          -777405 -750347 -726831 -706707 -690106 -677345 -668699 -664338 -746834 -733656 -715935 -698376
          -682377 -668313 -656484 -647238 -640890 -637661 -686256 -678820 -668049 -656619 -645724 -635897
          -627499 -620858 -616256 -613902 -641631 -637573 -631021 -623576 -616155 -609282 -603315 -598548
          -595222 -593514 -608610 -606628 -602723 -597901 -592851 -588030 -583768 -580326 -577909 -576662
          -584558 -583855 -581625 -578527 -575078 -571664 -568579 -566055 -564269 -563344 -567779 -567842
          -566649 -564652 -562250 -559767 -557467 -555555 -554190 -553480 -557158 -557648 -557052 -555706
          -553933 -552017 -550195 -548658 -547551 -546973 -552012 -552691 -552367 -551322 -549844 -548196
          -546601 -545242 -544257 -543741 -854021 -887678 -923879 -961340 -985212 -950974 -910683 -880470
          -861402 -852242 -865839 -899741 -937192 -981241 -1.0294e+06 -964907 -915175 -882404 -862614 -853220
          -890146 -922557 -954881 -984286 -996488 -956696 -914488 -883538 -863996 -854491 -929663 -959585
          -984688 -998431 -989241 -952163 -913470 -883930 -864599 -854859 -987655 -1.01556e+06 -1.0336e+06 -1.03347e+06
          -1.00514e+06 -955908 -912910 -882237 -862367 -852033 -1.05979e+06 -1.08778e+06 -1.09332e+06 -1.07831e+06 -1.02853e+06 -957634
          -906659 -873821 -853218 -842307 -1.10841e+06 -1.13195e+06 -1.07111e+06 -1.076e+06 -1.00476e+06 -934360 -885221 -853178
          -832951 -822531 -1.09474e+06 -1.06265e+06 -1.08038e+06 -1.029e+06 -953430 -893293 -851017 -822413 -804122 -794907
          -1.0358e+06 -1.04461e+06 -1.01052e+06 -948192 -889751 -843900 -810124 -786293 -770816 -763081 -955491 -948297
          -911334 -866722 -826352 -793249 -767544 -748697 -736243 -730010 -861723 -851711 -825531 -796112
          -768857 -745481 -726532 -712198 -702562 -697710 -780202 -773027 -756480 -737442 -719084 -702725
          -689030 -678419 -671179 -667508 -716464 -712111 -701920 -689604 -677210 -665801 -656011 -648287
          -642954 -640231 -667703 -665316 -659081 -651090 -642705 -634757 -627795 -622222 -618336 -616342
          -630449 -629379 -625638 -620471 -614800 -609264 -604320 -600310 -597490 -596036 -602172 -601988
          -599857 -596557 -592731 -588871 -585349 -582453 -580400 -579336 -581177 -581577 -580489 -578424
          -575843 -573131 -570594 -568476 -566959 -566169 -566312 -567080 -566653 -565383 -563618 -561666
          -559786 -558188 -557032 -556427 -556802 -557783 -557743 -556947 -555674 -554184 -552706 -551428
          -550494 -550002 -552164 -553241 -553381 -552806 -551763 -550492 -549204 -548078 -547249 -546811
          -876251 -916594 -962703 -1.01261e+06 -1.04218e+06 -1.00253e+06 -952462 -915776 -893205 -882514 -888301 -929495
          -978366 -1.03584e+06 -1.06174e+06 -1.01832e+06 -958498 -918620 -895172 -884188 -912649 -952499 -996631 -1.04122e+06
          -1.05792e+06 -1.01095e+06 -957947 -920784 -898011 -886924 -951699 -987341 -1.02045e+06 -1.04334e+06 -1.03831e+06 -997518
          -954429 -922273 -901009 -889631 -1.00929e+06 -1.0382e+06 -1.05602e+06 -1.05582e+06 -1.03108e+06 -988971 -950428 -922108
          -902036 -889473 -1.07852e+06 -1.09933e+06 -1.09938e+06 -1.07213e+06 -1.02713e+06 -977682 -939536 -913391 -893996 -879829
          -1.07232e+06 -1.0923e+06 -1.11151e+06 -1.06133e+06 -999704 -947990 -910884 -884744 -865259 -852915 -1.07719e+06 -1.06139e+06
          -1.07081e+06 -1.00782e+06 -946866 -900417 -867032 -842930 -825682 -815948 -988102 -1.00205e+06 -975768 -926852
          -881321 -845178 -817880 -797696 -783674 -776228 -894394 -899714 -879273 -847931 -817165 -790975
          -770070 -754226 -743333 -737697 -813107 -814083 -800655 -780863 -760395 -741926 -726512 -714556
          -706321 -702097 -746942 -746991 -738529 -725882 -712206 -699313 -688182 -679375 -673267 -670133
          -694500 -694659 -689455 -681313 -672134 -663171 -655227 -648835 -644363 -642061 -653310 -653779
          -650685 -645453 -639288 -633076 -627444 -622843 -619596 -617917 -621145 -621913 -620202 -616888
          -612766 -608472 -604493 -601194 -598845 -597625 -596331 -597341 -596548 -594514 -591783 -588823
          -586010 -583641 -581937 -581047 -577674 -578862 -578677 -577496 -575706 -573659 -571654 -569935
          -568684 -568027 -564337 -565644 -565852 -565224 -564050 -562608 -561143 -559859 -558914 -558414
          -555744 -557123 -557564 -557268 -556467 -555392 -554257 -553241 -552483 -552080 -551535 -552947
          -553497 -553356 -552730 -551830 -550851 -549962 -549293 -548936 -892540 -937416 -988577 -1.04128e+06
          -1.06701e+06 -1.03073e+06 -980866 -942982 -919194 -907785 -904850 -951874 -1.00821e+06 -1.06953e+06 -1.0755e+06 -1.0486e+06
          -989192 -947516 -922517 -910612 -929122 -977157 -1.0337e+06 -1.08845e+06 -1.07991e+06 -1.05207e+06 -994010 -953444
          -928561 -916037 -966132 -1.01128e+06 -1.05712e+06 -1.08994e+06 -1.0871e+06 -1.04136e+06 -994326 -960820 -937795 -923733
          -1.01799e+06 -1.05645e+06 -1.08293e+06 -1.08959e+06 -1.06798e+06 -1.02851e+06 -994318 -970582 -950142 -931199 -1.07768e+06 -1.10439e+06
          -1.10949e+06 -1.08543e+06 -1.04821e+06 -1.01166e+06 -986712 -972312 -954711 -927088 -1.07427e+06 -1.06309e+06 -1.10503e+06 -1.05946e+06
          -1.01123e+06 -974824 -950756 -931626 -909345 -889466 -1.05313e+06 -1.06606e+06 -1.05061e+06 -996310 -949676 -915534
          -890994 -870631 -851859 -839224 -952255 -969911 -949173 -912456 -878215 -850670 -829149 -811655
          -797740 -789603 -858970 -867852 -856035 -834199 -811293 -790967 -774060 -760441 -750373 -744883
          -784442 -789103 -782324 -769090 -753971 -739558 -727023 -716889 -709616 -705774 -725653 -728650
          -724701 -716450 -706429 -696383 -687356 -679984 -674735 -671994 -679216 -681529 -679325 -674136
          -667482 -660542 -654140 -648845 -645068 -643100 -642527 -644531 -643452 -640232 -635836 -631076
          -626578 -622804 -620095 -618681 -613670 -615520 -615186 -613266 -610400 -607161 -604020 -601343
          -599404 -598388 -591261 -593030 -593193 -592142 -590317 -588133 -585947 -584049 -582659 -581927
          -574314 -576039 -576532 -576061 -574939 -573476 -571950 -570595 -569588 -569054 -562140 -563839
          -564545 -564449 -563788 -562802 -561716 -560723 -559975 -559574 -554267 -555950 -556783 -556914
          -556530 -555833 -555016 -554246 -553656 -553337 -550401 -552077 -552970 -553206 -552952 -552393
          -551703 -551039 -550523 -550244 -901904 -948127 -998405 -1.04475e+06 -1.0629e+06 -1.03475e+06 -993786 -959797
          -937090 -925815 -914491 -964157 -1.02137e+06 -1.07542e+06 -1.09197e+06 -1.05425e+06 -1.00395e+06 -966041 -941740 -929673
          -939014 -992869 -1.05492e+06 -1.07831e+06 -1.07878e+06 -1.0691e+06 -1.01609e+06 -976773 -951242 -937609 -974616 -1.02919e+06
          -1.08512e+06 -1.08258e+06 -1.11837e+06 -1.07355e+06 -1.02658e+06 -993388 -968258 -950452 -1.02076e+06 -1.07219e+06 -1.11294e+06 -1.12107e+06
          -1.10834e+06 -1.0699e+06 -1.04026e+06 -1.02239e+06 -999693 -967705 -1.06957e+06 -1.11226e+06 -1.13131e+06 -1.11671e+06 -1.08658e+06 -1.05942e+06
          -1.0502e+06 -1.05691e+06 -1.04777e+06 -975552 -1.08008e+06 -1.06467e+06 -1.10929e+06 -1.07791e+06 -1.04161e+06 -1.01932e+06 -1.01104e+06 -999373
          -962217 -924267 -1.02465e+06 -1.05012e+06 -1.03589e+06 -997689 -963711 -940236 -924044 -904719 -878520 -859484
          -927470 -943366 -931324 -905926 -880723 -859957 -842836 -826207 -810222 -800215 -838690 -847205
          -840662 -825530 -808394 -792425 -778356 -765912 -755780 -749974 -767673 -773054 -769682 -760622
          -749263 -737805 -727333 -718386 -711622 -707934 -712144 -716141 -714563 -709087 -701628 -693673
          -686200 -679859 -675200 -672719 -668670 -671924 -671415 -668150 -663299 -657876 -652651 -648192
          -644938 -643219 -634517 -637301 -637448 -635594 -632494 -628851 -625243 -622125 -619842 -618637
          -607727 -610189 -610745 -609811 -607892 -605483 -603018 -600850 -599248 -598400 -586937 -589173
          -589987 -589659 -588537 -586979 -585311 -583808 -582684 -582084 -571206 -573285 -574263 -574332
          -573743 -572762 -571641 -570598 -569803 -569375 -559892 -561864 -562943 -563267 -563025 -562423
          -561664 -560926 -560351 -560038 -552566 -554472 -555610 -556085 -556051 -555678 -555140 -554588
          -554147 -553904 -548966 -550840 -552005 -552551 -552613 -552349 -551914 -551451 -551074 -550864
          -904578 -949116 -994252 -1.03151e+06 -1.04438e+06 -1.02651e+06 -995804 -966928 -946076 -935315 -917224 -965299
          -1.01644e+06 -1.05987e+06 -1.07117e+06 -1.04471e+06 -1.00679e+06 -974033 -951107 -939295 -942170 -995850 -1.0551e+06 -1.09851e+06
          -1.10552e+06 -1.06962e+06 -1.02388e+06 -987064 -961108 -947147 -978614 -1.03646e+06 -1.09304e+06 -1.07139e+06 -1.12666e+06 -1.08755e+06
          -1.04277e+06 -1.00691e+06 -977286 -958733 -1.02486e+06 -1.08352e+06 -1.12784e+06 -1.07248e+06 -1.13176e+06 -1.09996e+06 -1.06788e+06 -1.03975e+06
          -1.00184e+06 -971760 -1.07124e+06 -1.12261e+06 -1.14696e+06 -1.14011e+06 -1.12889e+06 -1.10629e+06 -1.09664e+06 -1.0772e+06 -1.02333e+06 -972574
          -1.07896e+06 -1.06671e+06 -1.08946e+06 -1.10692e+06 -1.0849e+06 -1.07184e+06 -1.06512e+06 -1.05683e+06 -975704 -930091 -1.01928e+06 -1.03984e+06
          -1.03377e+06 -1.01024e+06 -985212 -967919 -954716 -929549 -889265 -865188 -921538 -932126 -924623 -906047
          -886173 -868892 -853107 -834585 -814988 -803245 -830895 -836885 -832309 -820720 -806828 -793175
          -780301 -767852 -757097 -750902 -758901 -763539 -761442 -754555 -745357 -735614 -726274 -717888
          -711310 -707671 -703707 -707743 -707206 -703257 -697348 -690711 -684222 -678528 -674238 -671922
          -661317 -664878 -665233 -663106 -659412 -655008 -650591 -646714 -643828 -642286 -628481 -631622
          -632464 -631474 -629250 -626394 -623431 -620796 -618832 -617784 -602953 -605741 -606845 -606569
          -605318 -603519 -601563 -599784 -598443 -597726 -583245 -585754 -586996 -587171 -586564 -585480
          -584215 -583024 -582112 -581619 -568372 -570674 -571986 -572447 -572262 -571657 -570859 -570068
          -569446 -569106 -557688 -559842 -561190 -561829 -561912 -561618 -561126 -560598 -560168 -559929
          -550773 -552834 -554197 -554939 -555183 -555075 -554766 -554398 -554084 -553906 -547375 -549390
          -550760 -551549 -551867 -551846 -551624 -551331 -551072 -550923 -902014 -943632 -983391 -1.01438e+06
          -1.02651e+06 -1.01648e+06 -992295 -966517 -946813 -936415 -914589 -959240 -1.00329e+06 -1.03829e+06 -1.04991e+06 -1.03534e+06
          -1.00455e+06 -973924 -951393 -939674 -939983 -989940 -1.0411e+06 -1.0808e+06 -1.08898e+06 -1.06584e+06 -1.02455e+06 -986614
          -959468 -945326 -978633 -1.03405e+06 -1.08914e+06 -1.11874e+06 -1.12524e+06 -1.09152e+06 -1.04418e+06 -1.00173e+06 -969444 -951620
          -1.03015e+06 -1.08707e+06 -1.12676e+06 -1.09207e+06 -1.14391e+06 -1.10915e+06 -1.06379e+06 -1.01957e+06 -979209 -954854 -1.08528e+06 -1.12903e+06
          -1.07853e+06 -1.08354e+06 -1.14745e+06 -1.11905e+06 -1.08424e+06 -1.03442e+06 -979153 -945542 -1.1035e+06 -1.12259e+06 -1.06166e+06 -1.11602e+06
          -1.10256e+06 -1.06458e+06 -1.06093e+06 -1.00706e+06 -942911 -909345 -1.04394e+06 -1.05227e+06 -1.03682e+06 -1.0208e+06 -998444 -974178
          -950174 -911910 -874243 -853596 -933976 -934666 -924205 -906903 -887695 -868519 -849158 -827335
          -807792 -796768 -832197 -833804 -828004 -816913 -803640 -789944 -776472 -763444 -752722 -746720
          -754929 -758031 -755716 -749396 -740925 -731714 -722665 -714456 -708069 -704565 -698167 -701803
          -701494 -698162 -692977 -686981 -680989 -675658 -671622 -669442 -655866 -659433 -660149 -658602
          -655551 -651742 -647819 -644315 -641682 -640269 -623713 -626987 -628193 -627701 -626017 -623667
          -621135 -618833 -617093 -616159 -599000 -601947 -603369 -603504 -602693 -601310 -599713 -598214
          -597065 -596444 -580045 -582705 -584212 -584721 -584469 -583724 -582753 -581795 -581042 -580630
          -565795 -568228 -569759 -570492 -570596 -570268 -569714 -569116 -568628 -568357 -555579 -557847
          -559377 -560242 -560567 -560506 -560220 -559857 -559542 -559361 -548973 -551135 -552658 -553596
          -554050 -554146 -554020 -553798 -553586 -553461 -545728 -547838 -549356 -550326 -550840 -551009
          -550958 -550802 -550638 -550539 -895723 -934495 -970362 -998395 -1.01215e+06 -1.00737e+06 -985329 -959990
          -940411 -930104 -908155 -949622 -988996 -1.02092e+06 -1.03731e+06 -1.03172e+06 -1.00067e+06 -967889 -944280 -932299
          -933772 -980054 -1.02542e+06 -1.06324e+06 -1.08222e+06 -1.0729e+06 -1.02525e+06 -979959 -949863 -935149 -974332 -1.02581e+06
          -1.07596e+06 -1.1137e+06 -1.12377e+06 -1.09684e+06 -1.04037e+06 -988190 -953167 -935773 -1.03201e+06 -1.08494e+06 -1.13073e+06 -1.15154e+06
          -1.14511e+06 -1.10111e+06 -1.04139e+06 -988649 -950404 -930376 -1.0982e+06 -1.13792e+06 -1.15566e+06 -1.15982e+06 -1.14204e+06 -1.09002e+06
          -1.03275e+06 -978760 -936345 -913640 -1.09377e+06 -1.08812e+06 -1.06386e+06 -1.0669e+06 -1.06715e+06 -1.04579e+06 -997929 -944280
          -901921 -880143 -1.08064e+06 -1.07081e+06 -1.04283e+06 -1.01411e+06 -984482 -948762 -912994 -877029 -848489 -833387
          -953130 -943224 -924481 -901744 -878320 -854285 -831421 -810000 -793155 -784046 -834952 -832794
          -824026 -811007 -796288 -781183 -766803 -753896 -743970 -738589 -751569 -753526 -750399 -743636
          -734918 -725516 -716410 -708383 -702323 -699058 -693352 -696685 -696285 -693041 -688034 -682237
          -676455 -671353 -667532 -665484 -651190 -654719 -655562 -654258 -651502 -647990 -644340 -641070
          -638616 -637301 -619632 -622953 -624335 -624107 -622722 -620667 -618399 -616313 -614728 -613875
          -595577 -598596 -600191 -600566 -600023 -598902 -597539 -596230 -595214 -594662 -577215 -579949
          -581611 -582327 -582304 -581784 -581014 -580219 -579580 -579227 -563447 -565950 -567615 -568525
          -568823 -568688 -568306 -567848 -567458 -567237 -553592 -555924 -557571 -558589 -559082 -559188
          -559052 -558812 -558582 -558446 -547225 -549446 -551074 -552149 -552753 -553000 -553009 -552897
          -552763 -552678 -544099 -546266 -547882 -548981 -549636 -549947 -550023 -549972 -549883 -549821
          -886716 -922883 -955707 -981750 -996428 -994254 -972314 -946883 -927582 -917555 -898838 -937740
          -974173 -1.00518e+06 -1.02579e+06 -1.02529e+06 -990780 -955019 -930622 -918658 -924059 -968072 -1.01105e+06 -1.05086e+06
          -1.08102e+06 -1.0696e+06 -1.02045e+06 -966613 -933982 -919012 -964627 -1.01462e+06 -1.06348e+06 -1.10645e+06 -1.12625e+06 -1.07188e+06
          -1.03027e+06 -969532 -932363 -915336 -1.0234e+06 -1.07584e+06 -1.12159e+06 -1.14672e+06 -1.13479e+06 -1.08574e+06 -1.0154e+06 -958081
          -921785 -904378 -1.09044e+06 -1.13e+06 -1.1556e+06 -1.15182e+06 -1.11035e+06 -1.04738e+06 -984528 -934457 -900596 -883678
          -1.0667e+06 -1.06217e+06 -1.07597e+06 -1.09257e+06 -1.04813e+06 -991073 -939257 -896657 -866926 -851924 -1.06868e+06 -1.07122e+06
          -1.04056e+06 -996674 -952825 -910699 -874394 -844323 -822794 -811696 -945541 -942149 -917814 -888108
          -859627 -833096 -809839 -790448 -776374 -769002 -826362 -826726 -816535 -801358 -784939 -768871
          -754304 -742058 -733127 -728415 -744265 -747053 -743714 -736425 -727245 -717586 -708484 -700734
          -695061 -692061 -687515 -691106 -690750 -687466 -682431 -676663 -670987 -666063 -662435 -660511
          -646531 -650145 -651076 -649867 -647222 -643838 -640331 -637211 -634884 -633644 -615875 -619234
          -620707 -620604 -619364 -617462 -615342 -613388 -611905 -611107 -592513 -595559 -597240 -597739
          -597340 -596368 -595143 -593952 -593022 -592516 -574683 -577444 -579184 -580014 -580123 -579739
          -579095 -578404 -577840 -577526 -561317 -563848 -565584 -566597 -567014 -567000 -566730 -566366
          -566043 -565856 -551752 -554112 -555825 -556936 -557537 -557752 -557718 -557561 -557392 -557286
          -545574 -547823 -549512 -550673 -551377 -551725 -551828 -551794 -551716 -551659 -542541 -544735
          -546411 -547592 -548343 -548751 -548918 -548941 -548905 -548871 -875747 -909080 -938275 -960414
          -971701 -967896 -948580 -926289 -909158 -900190 -887279 -923440 -956124 -982615 -997830 -993184
          -963192 -932371 -910868 -900202 -911300 -953212 -993003 -1.02825e+06 -1.04935e+06 -1.0411e+06 -987428 -940548
          -911801 -898500 -949845 -999873 -1.04825e+06 -1.08797e+06 -1.08272e+06 -1.07059e+06 -999772 -940977 -907267 -892154
          -1.00517e+06 -1.06182e+06 -1.10887e+06 -1.1055e+06 -1.06635e+06 -1.0516e+06 -979626 -925610 -893445 -878561 -1.06902e+06 -1.11707e+06
          -1.14305e+06 -1.12892e+06 -1.0716e+06 -1.00462e+06 -942885 -898274 -870214 -856712 -1.06332e+06 -1.06074e+06 -1.10846e+06 -1.06634e+06
          -1.00376e+06 -944543 -896750 -861471 -838355 -826952 -1.03874e+06 -1.06017e+06 -1.02124e+06 -967458 -918536 -876673
          -843039 -817473 -800192 -791491 -912335 -921637 -899420 -868333 -838383 -811805 -789602 -772208
          -760178 -754028 -807354 -812610 -803986 -788710 -771823 -755639 -741429 -729969 -721902 -717734
          -733428 -737880 -735222 -727990 -718671 -708960 -699995 -692559 -687245 -684476 -680749 -684862
          -684759 -681528 -676470 -670707 -665111 -660335 -656868 -655047 -641874 -645630 -646649 -645479
          -642858 -639513 -636074 -633043 -630804 -629618 -612408 -615791 -617299 -617232 -616036 -614189
          -612136 -610251 -608828 -608065 -589783 -592824 -594526 -595064 -594718 -593808 -592649 -591519
          -590638 -590158 -572444 -575197 -576958 -577830 -577996 -577676 -577097 -576463 -575942 -575651
          -559419 -561945 -563706 -564762 -565237 -565288 -565080 -564769 -564485 -564320 -550088 -552448
          -554187 -555343 -556001 -556279 -556305 -556199 -556067 -555981 -544059 -546310 -548027 -549233
          -549994 -550402 -550564 -550579 -550536 -550498 -541098 -543296 -545000 -546226 -547033 -547501
          -547725 -547797 -547796 -547780 -863777 -893837 -918491 -935127 -941211 -935310 -919451 -901592
          -887602 -880160 -874491 -907168 -934340 -953014 -959348 -950466 -927994 -904814 -887875 -879217
          -896624 -934988 -967587 -990273 -995080 -977966 -941254 -908306 -886507 -875956 -931344 -979131
          -1.01952e+06 -1.04449e+06 -1.03638e+06 -1.00121e+06 -947583 -905752 -880110 -868138 -978634 -1.03837e+06 -1.07843e+06 -1.07825e+06
          -1.05021e+06 -991747 -933168 -891305 -865819 -853856 -1.02887e+06 -1.09009e+06 -1.06574e+06 -1.06408e+06 -1.02323e+06 -956201
          -903035 -866295 -843520 -832632 -1.03949e+06 -1.0605e+06 -1.08019e+06 -1.02804e+06 -961713 -905207 -863005 -833344
          -814447 -805244 -973874 -1.00613e+06 -983168 -935209 -887611 -848098 -817606 -795375 -780803 -773582
          -872092 -887742 -873980 -846765 -818099 -792661 -771898 -756148 -745551 -740221 -786610 -794847
          -789098 -775237 -758851 -743062 -729411 -718663 -711263 -707493 -722445 -728020 -726235 -719393
          -710174 -700544 -691761 -684605 -679576 -676984 -674383 -678832 -678936 -675750 -670656 -664873
          -659319 -654644 -651293 -649548 -637756 -641561 -642582 -641366 -638684 -635302 -631864 -628870
          -626678 -625525 -609454 -612802 -614264 -614144 -612901 -611027 -608971 -607104 -605704 -604957
          -587485 -590477 -592135 -592636 -592264 -591344 -590191 -589075 -588211 -587742 -570549 -573261
          -574991 -575845 -576005 -575690 -575123 -574507 -574002 -573721 -557788 -560284 -562028 -563080
          -563563 -563629 -563442 -563152 -562885 -562729 -548633 -550971 -552704 -553865 -554540 -554841
          -554892 -554810 -554696 -554620 -542713 -544949 -546665 -547883 -548665 -549101 -549290 -549331
          -549307 -549279 -539805 -541990 -543696 -544938 -545768 -546265 -546518 -546616 -546634 -546629
          -852103 -878773 -898710 -909924 -911543 -904306 -891092 -876926 -865779 -859786 -862166 -891013
          -912127 -923180 -923000 -912528 -895277 -877957 -864957 -858157 -882754 -916439 -939822 -949821
          -944458 -926358 -900976 -878023 -861972 -853900 -914220 -956332 -982077 -987460 -969267 -937571
          -901979 -873343 -854574 -845434 -954719 -1.0095e+06 -1.03223e+06 -1.02226e+06 -981088 -933047 -891074 -860327
          -840822 -831430 -993912 -1.06219e+06 -1.0613e+06 -1.0237e+06 -964290 -909580 -867872 -838728 -820410 -811583
          -999505 -1.05943e+06 -1.04237e+06 -980355 -919272 -870774 -835070 -810129 -794311 -786629 -930940 -969778
          -948242 -903514 -859779 -823964 -796662 -777048 -764359 -758124 -845170 -863007 -852297 -827376
          -800303 -776270 -756873 -742400 -732812 -728037 -772191 -781269 -776600 -763428 -747429 -732018
          -718846 -708637 -701710 -698215 -714756 -720501 -718838 -711971 -702664 -693013 -684324 -677349
          -672509 -670037 -669955 -674311 -674242 -670830 -665523 -659600 -654000 -649353 -646060 -644358
          -634876 -638529 -639339 -637894 -635009 -631481 -627964 -624945 -622759 -621616 -607335 -610545
          -611834 -611537 -610139 -608151 -606025 -604124 -602713 -601966 -585770 -588655 -590191 -590571
          -590095 -589097 -587893 -586751 -585875 -585403 -569073 -571708 -573357 -574134 -574229 -573867
          -573271 -572638 -572127 -571844 -556468 -558909 -560601 -561608 -562054 -562095 -561894 -561598
          -561330 -561174 -547418 -549717 -551416 -552552 -553209 -553500 -553548 -553467 -553356 -553282
          -541564 -543770 -545465 -546668 -547444 -547879 -548072 -548119 -548100 -548076 -538689 -540849
          -542538 -543771 -544600 -545100 -545360 -545466 -545491 -545490 -841908 -865568 -881355 -888078
          -886366 -878218 -866581 -854871 -845778 -840888 -852000 -877581 -893455 -898497 -894038 -882833
          -868383 -854618 -844296 -838854 -872829 -902910 -918467 -918980 -907914 -890116 -870217 -852799
          -840421 -834087 -904786 -943338 -956548 -946961 -923489 -895377 -868513 -847088 -832668 -825492
          -944796 -996998 -1.00144e+06 -972821 -931362 -891708 -859152 -835202 -819711 -812142 -979749 -1.0476e+06
          -1.02945e+06 -976334 -920464 -874661 -840412 -816386 -801171 -793800 -983210 -1.05868e+06 -1.01482e+06 -945464
          -887712 -844420 -813118 -791409 -777694 -771048 -914601 -954036 -927804 -881466 -838937 -805225
          -780013 -762154 -750720 -745137 -835176 -851886 -839695 -813911 -786802 -763293 -744678 -731015
          -722077 -717663 -767392 -775247 -769321 -755180 -738640 -723094 -710070 -700145 -693500 -690174
          -712507 -717277 -714538 -706759 -696817 -686822 -678021 -671077 -666321 -663911 -668646 -672328
          -671466 -667336 -661483 -655208 -649422 -644707 -641408 -639715 -633829 -637045 -637323 -635372
          -632078 -628262 -624569 -621458 -619234 -618079 -606332 -609264 -610213 -609582 -607902 -605703
          -603437 -601453 -600001 -599237 -584766 -587476 -588798 -588965 -588304 -587162 -585858 -584653
          -583743 -583256 -568076 -570597 -572113 -572758 -572735 -572280 -571617 -570941 -570405 -570110
          -555489 -557855 -559463 -560388 -560762 -560745 -560502 -560178 -559894 -559731 -546462 -548710
          -550354 -551439 -552052 -552308 -552330 -552234 -552113 -552035 -540630 -542797 -544453 -545623
          -546370 -546784 -546962 -547000 -546976 -546950 -537767 -539894 -541552 -542759 -543566 -544052
          -544302 -544402 -544424 -544421 -833663 -854925 -867392 -870649 -866491 -857598 -846759 -836505
          -828726 -824576 -844565 -867845 -879610 -880038 -872491 -860586 -847432 -835613 -826915 -822349
          -867901 -896541 -906028 -898932 -883440 -865190 -847574 -832938 -822662 -817402 -905630 -946248
          -949452 -925914 -896185 -868327 -844862 -826925 -814936 -808958 -954057 -1.01543e+06 -1.00446e+06 -952514
          -903690 -865287 -836475 -815953 -802778 -796341 -989722 -1.05934e+06 -1.02745e+06 -956290 -895758 -851637
          -820479 -799167 -785803 -779350 -990990 -1.05903e+06 -1.01e+06 -930310 -869119 -826398 -796857 -776877
          -764423 -758425 -921926 -955422 -923352 -871167 -825996 -791968 -767433 -750466 -739763 -734578
          -842741 -854272 -837048 -807333 -778095 -753859 -735280 -721948 -713357 -709150 -774304 -778030
          -768175 -751132 -732852 -716475 -703184 -693277 -686740 -683496 -717286 -719406 -714012 -704187
          -692908 -682157 -672998 -665929 -661157 -658759 -671307 -673486 -671002 -665531 -658725 -651847
          -645724 -640844 -637478 -635765 -634996 -637395 -636733 -633947 -630014 -625759 -621792 -618527
          -616227 -615042 -606594 -609081 -609494 -608356 -606265 -603764 -601296 -599188 -597668 -596875
          -584525 -586984 -587998 -587862 -586942 -585601 -584156 -582859 -581896 -581386 -567571 -569944
          -571281 -571743 -571560 -570976 -570218 -569479 -568905 -568593 -554855 -557129 -558628 -559442
          -559716 -559618 -559313 -558947 -558637 -558461 -545770 -547956 -549531 -550546 -551096 -551300
          -551282 -551158 -551019 -550933 -539914 -542036 -543644 -544766 -545471 -545850 -546001 -546019
          -545984 -545952 -537043 -539132 -540752 -541921 -542695 -543153 -543382 -543467 -543480 -543473
          -826967 -846322 -856296 -857112 -851317 -841899 -831467 -822051 -815069 -811381 -838809 -860372
          -869050 -866217 -856612 -844176 -831636 -820876 -813124 -809091 -865305 -893617 -898310 -885312
          -866583 -847737 -831096 -817875 -808770 -804142 -911568 -958316 -952546 -914897 -879068 -850310
          -828137 -811899 -801238 -795955 -976021 -1.05898e+06 -1.03786e+06 -948174 -888071 -848082 -820524 -801671
          -789778 -784005 -1.01624e+06 -1.06488e+06 -1.04643e+06 -952408 -882388 -836614 -806340 -786344 -774018 -768112
          -1.0225e+06 -1.06012e+06 -1.0269e+06 -929360 -859409 -814506 -785177 -765982 -754225 -748612 -955008 -971936
          -932454 -869765 -818952 -783027 -758268 -741626 -731301 -726343 -871408 -869866 -842970 -806275
          -773234 -747397 -728351 -715026 -706573 -702468 -796634 -790321 -772740 -750717 -729652 -711914
          -698061 -687983 -681434 -678213 -730878 -727353 -717136 -704024 -690764 -678928 -669230 -661926
          -657068 -654648 -678482 -677906 -672768 -665300 -657174 -649497 -642925 -637814 -634340 -632587