<?xml version="1.0"?>
<VTKFile type="PolyData" version="0.1" byte_order="LittleEndian">
  <PolyData>
    <Piece NumberOfLines="100" NumberOfPoints="101">
      <PointData Scalars="Sn">
        <DataArray type="Float32" Name="Sn" NumberOfComponents="1" format="ascii">
          0.592611 0.592611 0.592612 0.592612 0.592612 0.592613 0.592613 0.592614 0.592614 0.592615 0.592616 0.592616
          0.592617 0.592618 0.592619 0.59262 0.592622 0.592623 0.592624 0.592626 0.592628 0.59263 0.592632 0.592634
          0.592637 0.59264 0.592643 0.592647 0.592651 0.592655 0.59266 0.592665 0.592671 0.592677 0.592684 0.592692
          0.5927 0.592709 0.59272 0.592731 0.592743 0.592757 0.592772 0.592789 0.592807 0.592828 0.59285 0.592875
          0.592902 0.592933 0.592966 0.593003 0.593044 0.593089 0.593138 0.593193 0.593254 0.593322 0.593396 0.593479
          0.59357 0.593671 0.593784 0.593908 0.594046 0.5942 0.59437 0.59456 0.59477 0.595005 0.595266 0.595557
          0.595882 0.596245 0.59665 0.597104 0.597613 0.598185 0.598827 0.599551 0.600368 0.601292 0.60234 0.603532
          0.604891 0.606446 0.608233 0.610295 0.612685 0.615472 0.618743 0.622612 0.627226 0.63279 0.639585 0.648015
          0.65869 0.672569 0.691276 0.717776 0.757868
        </DataArray>
        <DataArray type="Float32" Name="Sw" NumberOfComponents="1" format="ascii">
          0.407389 0.407389 0.407388 0.407388 0.407388 0.407387 0.407387 0.407386 0.407386 0.407385 0.407384 0.407384
          0.407383 0.407382 0.407381 0.40738 0.407378 0.407377 0.407376 0.407374 0.407372 0.40737 0.407368 0.407366
          0.407363 0.40736 0.407357 0.407353 0.407349 0.407345 0.40734 0.407335 0.407329 0.407323 0.407316 0.407308
          0.4073 0.407291 0.40728 0.407269 0.407257 0.407243 0.407228 0.407211 0.407193 0.407172 0.40715 0.407125
          0.407098 0.407067 0.407034 0.406997 0.406956 0.406911 0.406862 0.406807 0.406746 0.406678 0.406604 0.406521
          0.40643 0.406329 0.406216 0.406092 0.405954 0.4058 0.40563 0.40544 0.40523 0.404995 0.404734 0.404443
          0.404118 0.403756 0.40335 0.402896 0.402387 0.401815 0.401173 0.400449 0.399632 0.398708 0.39766 0.396468
          0.395109 0.393554 0.391767 0.389705 0.387315 0.384528 0.381256 0.377388 0.372774 0.36721 0.360415 0.351985
          0.34131 0.327431 0.308724 0.282224 0.242132
        </DataArray>
        <DataArray type="Float32" Name="pn" NumberOfComponents="1" format="ascii">
          100000 100000 100000 100000 100000 100000 100000 100000 100000 100000 100000 100000
          100000 100000 100000 100000 100000 100000 100000 100000 100000 100000 100000 100000
          100000 100000 100000 100000 100000 100000 100000 100000 100000 100000 100000 100000
          100000 100000 100000 100000 100000 100000 100000 100000 100000 100000 100000 100000
          100000 100000 100000 100000 100000 100000 100000 100000 100000 100000 100000 100000
          100000 100000 100000 100000 100000 100000 100000 100000 100000 100000 100000 100000
          100000 100000 100000 100000 100000 100000 100000 100000 100000 100000 100000 100000
          100000 100000 100000 100000 100000 100000 100000 100000 100000 100000 100000 100000
          100000 100000 100000 100000 100000
        </DataArray>
        <DataArray type="Float32" Name="pw" NumberOfComponents="1" format="ascii">
          99019 99019 99019 99019 99019 99018.9 99018.9 99018.9 99018.9 99018.9 99018.9 99018.8
          99018.8 99018.8 99018.7 99018.7 99018.7 99018.6 99018.6 99018.5 99018.5 99018.4 99018.3 99018.3
          99018.2 99018.1 99018 99017.9 99017.8 99017.6 99017.5 99017.3 99017.1 99016.9 99016.7 99016.5
          99016.2 99015.9 99015.6 99015.2 99014.8 99014.4 99013.9 99013.4 99012.8 99012.2 99011.5 99010.7
          99009.8 99008.9 99007.8 99006.7 99005.4 99004 99002.4 99000.7 98998.8 98996.7 98994.3 98991.8
          98988.9 98985.7 98982.2 98978.3 98974 98969.2 98963.9 98958 98951.4 98944.1 98936 98927
          98916.9 98905.7 98893.2 98879.2 98863.6 98846 98826.3 98804.2 98779.2 98751.1 98719.2 98683
          98641.8 98594.7 98540.5 98478 98405.4 98320.3 98219.8 98099.8 97954.5 97775.5 97550.2 97258.1
          96864.1 96301.4 95425.5 93854 90190
        </DataArray>
        <DataArray type="Float32" Name="pc" NumberOfComponents="1" format="ascii">
          981 981.009 981.019 981.029 981.041 981.055 981.069 981.085 981.103 981.123 981.144 981.168
          981.195 981.224 981.256 981.291 981.33 981.372 981.419 981.471 981.528 981.591 981.66 981.736
          981.82 981.912 982.013 982.125 982.248 982.383 982.532 982.696 982.877 983.076 983.295 983.536
          983.802 984.095 984.418 984.774 985.166 985.599 986.076 986.602 987.182 987.822 988.528 989.307
          990.167 991.116 992.165 993.323 994.602 996.015 997.577 999.304 1001.21 1003.33 1005.66 1008.25
          1011.11 1014.28 1017.8 1021.69 1026.01 1030.8 1036.11 1042.01 1048.57 1055.86 1063.97 1072.99
          1083.05 1094.27 1106.79 1120.79 1136.45 1153.99 1173.69 1195.82 1220.76 1248.92 1280.79 1316.98
          1358.19 1405.32 1459.46 1521.98 1594.63 1679.69 1780.18 1900.21 2045.53 2224.5 2449.83 2741.92
          3135.92 3698.57 4574.49 6146.04 9810
        </DataArray>
        <DataArray type="Float32" Name="rhoW" NumberOfComponents="1" format="ascii">
          1000 1000 1000 1000 1000 1000 1000 1000 1000 1000 1000 1000
          1000 1000 1000 1000 1000 1000 1000 1000 1000 1000 1000 1000
          1000 1000 1000 1000 1000 1000 1000 1000 1000 1000 1000 1000
          1000 1000 1000 1000 1000 1000 1000 1000 1000 1000 1000 1000
          1000 1000 1000 1000 1000 1000 1000 1000 1000 1000 1000 1000
          1000 1000 1000 1000 1000 1000 1000 1000 1000 1000 1000 1000
          1000 1000 1000 1000 1000 1000 1000 1000 1000 1000 1000 1000
          1000 1000 1000 1000 1000 1000 1000 1000 1000 1000 1000 1000
          1000 1000 1000 1000 1000
        </DataArray>
        <DataArray type="Float32" Name="rhoN" NumberOfComponents="1" format="ascii">
          1e-10 1e-10 1e-10 1e-10 1e-10 1e-10 1e-10 1e-10 1e-10 1e-10 1e-10 1e-10
          1e-10 1e-10 1e-10 1e-10 1e-10 1e-10 1e-10 1e-10 1e-10 1e-10 1e-10 1e-10
          1e-10 1e-10 1e-10 1e-10 1e-10 1e-10 1e-10 1e-10 1e-10 1e-10 1e-10 1e-10
          1e-10 1e-10 1e-10 1e-10 1e-10 1e-10 1e-10 1e-10 1e-10 1e-10 1e-10 1e-10
          1e-10 1e-10 1e-10 1e-10 1e-10 1e-10 1e-10 1e-10 1e-10 1e-10 1e-10 1e-10
          1e-10 1e-10 1e-10 1e-10 1e-10 1e-10 1e-10 1e-10 1e-10 1e-10 1e-10 1e-10
          1e-10 1e-10 1e-10 1e-10 1e-10 1e-10 1e-10 1e-10 1e-10 1e-10 1e-10 1e-10
          1e-10 1e-10 1e-10 1e-10 1e-10 1e-10 1e-10 1e-10 1e-10 1e-10 1e-10 1e-10
          1e-10 1e-10 1e-10 1e-10 1e-10
        </DataArray>
        <DataArray type="Float32" Name="mobW" NumberOfComponents="1" format="ascii">
          215.441 215.439 215.437 215.434 215.431 215.428 215.425 215.421 215.417 215.412 215.407 215.401
          215.395 215.388 215.38 215.372 215.362 215.352 215.341 215.329 215.315 215.3 215.283 215.265
          215.245 215.223 215.199 215.172 215.143 215.111 215.075 215.036 214.993 214.946 214.893 214.836
          214.772 214.703 214.626 214.541 214.448 214.345 214.232 214.107 213.969 213.818 213.65 213.466
          213.263 213.039 212.792 212.519 212.218 211.887 211.521 211.118 210.673 210.183 209.641 209.044
          208.386 207.659 206.858 205.975 205.001 203.927 202.743 201.438 200.001 198.418 196.675 194.756
          192.645 190.324 187.773 184.972 181.897 178.525 174.832 170.79 166.372 161.551 156.296 150.581
          144.376 137.658 130.402 122.591 114.215 105.273 95.7781 85.764 75.2887 64.446 53.3771 42.2873
          31.4688 21.3308 12.4354 5.51654 1.35908
        </DataArray>
        <DataArray type="Float32" Name="mobN" NumberOfComponents="1" format="ascii">
          1e+10 1e+10 1e+10 1e+10 1e+10 1e+10 1e+10 1e+10 1e+10 1e+10 1e+10 1e+10
          1e+10 1e+10 1e+10 1e+10 1e+10 1e+10 1e+10 1e+10 1e+10 1e+10 1e+10 1e+10
          1e+10 1e+10 1e+10 1e+10 1e+10 1e+10 1e+10 1e+10 1e+10 1e+10 1e+10 1e+10
          1e+10 1e+10 1e+10 1e+10 1e+10 1e+10 1e+10 1e+10 1e+10 1e+10 1e+10 1e+10
          1e+10 1e+10 1e+10 1e+10 1e+10 1e+10 1e+10 1e+10 1e+10 1e+10 1e+10 1e+10
          1e+10 1e+10 1e+10 1e+10 1e+10 1e+10 1e+10 1e+10 1e+10 1e+10 1e+10 1e+10
          1e+10 1e+10 1e+10 1e+10 1e+10 1e+10 1e+10 1e+10 1e+10 1e+10 1e+10 1e+10
          1e+10 1e+10 1e+10 1e+10 1e+10 1e+10 1e+10 1e+10 1e+10 1e+10 1e+10 1e+10
          1e+10 1e+10 1e+10 1e+10 1e+10
        </DataArray>
        <DataArray type="Float32" Name="porosity" NumberOfComponents="1" format="ascii">
          1 1 1 1 1 1 1 1 1 1 1 1
          1 1 1 1 1 1 1 1 1 1 1 1
          1 1 1 1 1 1 1 1 1 1 1 1
          1 1 1 1 1 1 1 1 1 1 1 1
          1 1 1 1 1 1 1 1 1 1 1 1
          1 1 1 1 1 1 1 1 1 1 1 1
          1 1 1 1 1 1 1 1 1 1 1 1
          1 1 1 1 1 1 1 1 1 1 1 1
          1 1 1 1 1
        </DataArray>
        <DataArray type="Float32" Name="temperature" NumberOfComponents="1" format="ascii">
          283.15 283.15 283.15 283.15 283.15 283.15 283.15 283.15 283.15 283.15 283.15 283.15
          283.15 283.15 283.15 283.15 283.15 283.15 283.15 283.15 283.15 283.15 283.15 283.15
          283.15 283.15 283.15 283.15 283.15 283.15 283.15 283.15 283.15 283.15 283.15 283.15
          283.15 283.15 283.15 283.15 283.15 283.15 283.15 283.15 283.15 283.15 283.15 283.15
          283.15 283.15 283.15 283.15 283.15 283.15 283.15 283.15 283.15 283.15 283.15 283.15
          283.15 283.15 283.15 283.15 283.15 283.15 283.15 283.15 283.15 283.15 283.15 283.15
          283.15 283.15 283.15 283.15 283.15 283.15 283.15 283.15 283.15 283.15 283.15 283.15
          283.15 283.15 283.15 283.15 283.15 283.15 283.15 283.15 283.15 283.15 283.15 283.15
          283.15 283.15 283.15 283.15 283.15
        </DataArray>
        <DataArray type="Float32" Name="pressure head" NumberOfComponents="1" format="ascii">
          -10 -10.0001 -10.0002 -10.0003 -10.0004 -10.0006 -10.0007 -10.0009 -10.0011 -10.0013 -10.0015 -10.0017
          -10.002 -10.0023 -10.0026 -10.003 -10.0034 -10.0038 -10.0043 -10.0048 -10.0054 -10.006 -10.0067 -10.0075
          -10.0084 -10.0093 -10.0103 -10.0115 -10.0127 -10.0141 -10.0156 -10.0173 -10.0191 -10.0212 -10.0234 -10.0259
          -10.0286 -10.0316 -10.0348 -10.0385 -10.0425 -10.0469 -10.0517 -10.0571 -10.063 -10.0695 -10.0767 -10.0847
          -10.0934 -10.1031 -10.1138 -10.1256 -10.1387 -10.1531 -10.169 -10.1866 -10.2061 -10.2276 -10.2514 -10.2778
          -10.307 -10.3393 -10.3751 -10.4148 -10.4588 -10.5076 -10.5618 -10.622 -10.6888 -10.7631 -10.8457 -10.9378
          -11.0403 -11.1546 -11.2823 -11.4249 -11.5846 -11.7634 -11.9642 -12.1899 -12.4441 -12.7311 -13.056 -13.4248
          -13.845 -14.3254 -14.8773 -15.5146 -16.2552 -17.1223 -18.1466 -19.3701 -20.8514 -22.6758 -24.9728 -27.9502
          -31.9666 -37.702 -46.6309 -62.6508 -100
        </DataArray>
        <DataArray type="Float32" Name="water content" NumberOfComponents="1" format="ascii">
          0.407389 0.407389 0.407388 0.407388 0.407388 0.407387 0.407387 0.407386 0.407386 0.407385 0.407384 0.407384
          0.407383 0.407382 0.407381 0.40738 0.407378 0.407377 0.407376 0.407374 0.407372 0.40737 0.407368 0.407366
          0.407363 0.40736 0.407357 0.407353 0.407349 0.407345 0.40734 0.407335 0.407329 0.407323 0.407316 0.407308
          0.4073 0.407291 0.40728 0.407269 0.407257 0.407243 0.407228 0.407211 0.407193 0.407172 0.40715 0.407125
          0.407098 0.407067 0.407034 0.406997 0.406956 0.406911 0.406862 0.406807 0.406746 0.406678 0.406604 0.406521
          0.40643 0.406329 0.406216 0.406092 0.405954 0.4058 0.40563 0.40544 0.40523 0.404995 0.404734 0.404443
          0.404118 0.403756 0.40335 0.402896 0.402387 0.401815 0.401173 0.400449 0.399632 0.398708 0.39766 0.396468
          0.395109 0.393554 0.391767 0.389705 0.387315 0.384528 0.381256 0.377388 0.372774 0.36721 0.360415 0.351985
          0.34131 0.327431 0.308724 0.282224 0.242132
        </DataArray>
      </PointData>
      <CellData Scalars="process rank">
        <DataArray type="Float32" Name="process rank" NumberOfComponents="1" format="ascii">
          0 0 0 0 0 0 0 0 0 0 0 0
          0 0 0 0 0 0 0 0 0 0 0 0
          0 0 0 0 0 0 0 0 0 0 0 0
          0 0 0 0 0 0 0 0 0 0 0 0
          0 0 0 0 0 0 0 0 0 0 0 0
          0 0 0 0 0 0 0 0 0 0 0 0
          0 0 0 0 0 0 0 0 0 0 0 0
          0 0 0 0 0 0 0 0 0 0 0 0
          0 0 0 0
        </DataArray>
      </CellData>
      <Points>
        <DataArray type="Float32" Name="Coordinates" NumberOfComponents="3" format="ascii">
          0 0 0 -0.01 0 0 -0.02 0 0 -0.03 0 0
          -0.04 0 0 -0.05 0 0 -0.06 0 0 -0.07 0 0
          -0.08 0 0 -0.09 0 0 -0.1 0 0 -0.11 0 0
          -0.12 0 0 -0.13 0 0 -0.14 0 0 -0.15 0 0
          -0.16 0 0 -0.17 0 0 -0.18 0 0 -0.19 0 0
          -0.2 0 0 -0.21 0 0 -0.22 0 0 -0.23 0 0
          -0.24 0 0 -0.25 0 0 -0.26 0 0 -0.27 0 0
          -0.28 0 0 -0.29 0 0 -0.3 0 0 -0.31 0 0
          -0.32 0 0 -0.33 0 0 -0.34 0 0 -0.35 0 0
          -0.36 0 0 -0.37 0 0 -0.38 0 0 -0.39 0 0
          -0.4 0 0 -0.41 0 0 -0.42 0 0 -0.43 0 0
          -0.44 0 0 -0.45 0 0 -0.46 0 0 -0.47 0 0
          -0.48 0 0 -0.49 0 0 -0.5 0 0 -0.51 0 0
          -0.52 0 0 -0.53 0 0 -0.54 0 0 -0.55 0 0
          -0.56 0 0 -0.57 0 0 -0.58 0 0 -0.59 0 0
          -0.6 0 0 -0.61 0 0 -0.62 0 0 -0.63 0 0
          -0.64 0 0 -0.65 0 0 -0.66 0 0 -0.67 0 0
          -0.68 0 0 -0.69 0 0 -0.7 0 0 -0.71 0 0
          -0.72 0 0 -0.73 0 0 -0.74 0 0 -0.75 0 0
          -0.76 0 0 -0.77 0 0 -0.78 0 0 -0.79 0 0
          -0.8 0 0 -0.81 0 0 -0.82 0 0 -0.83 0 0
          -0.84 0 0 -0.85 0 0 -0.86 0 0 -0.87 0 0
          -0.88 0 0 -0.89 0 0 -0.9 0 0 -0.91 0 0
          -0.92 0 0 -0.93 0 0 -0.94 0 0 -0.95 0 0
          -0.96 0 0 -0.97 0 0 -0.98 0 0 -0.99 0 0
          -1 0 0
        </DataArray>
      </Points>
      <Lines>
        <DataArray type="Int32" Name="connectivity" NumberOfComponents="1" format="ascii">
          0 1 1 2 2 3 3 4 4 5 5 6
          6 7 7 8 8 9 9 10 10 11 11 12
          12 13 13 14 14 15 15 16 16 17 17 18
          18 19 19 20 20 21 21 22 22 23 23 24
          24 25 25 26 26 27 27 28 28 29 29 30
          30 31 31 32 32 33 33 34 34 35 35 36
          36 37 37 38 38 39 39 40 40 41 41 42
          42 43 43 44 44 45 45 46 46 47 47 48
          48 49 49 50 50 51 51 52 52 53 53 54
          54 55 55 56 56 57 57 58 58 59 59 60
          60 61 61 62 62 63 63 64 64 65 65 66
          66 67 67 68 68 69 69 70 70 71 71 72
          72 73 73 74 74 75 75 76 76 77 77 78
          78 79 79 80 80 81 81 82 82 83 83 84
          84 85 85 86 86 87 87 88 88 89 89 90
          90 91 91 92 92 93 93 94 94 95 95 96
          96 97 97 98 98 99 99 100
        </DataArray>
        <DataArray type="Int32" Name="offsets" NumberOfComponents="1" format="ascii">
          2 4 6 8 10 12 14 16 18 20 22 24
          26 28 30 32 34 36 38 40 42 44 46 48
          50 52 54 56 58 60 62 64 66 68 70 72
          74 76 78 80 82 84 86 88 90 92 94 96
          98 100 102 104 106 108 110 112 114 116 118 120
          122 124 126 128 130 132 134 136 138 140 142 144
          146 148 150 152 154 156 158 160 162 164 166 168
          170 172 174 176 178 180 182 184 186 188 190 192
          194 196 198 200
        </DataArray>
      </Lines>
    </Piece>
  </PolyData>
</VTKFile>
