<?xml version="1.0"?>
<VTKFile type="PolyData" version="0.1" byte_order="LittleEndian">
  <PolyData>
    <Piece NumberOfLines="100" NumberOfPoints="101">
      <PointData Scalars="Sn">
        <DataArray type="Float32" Name="Sn" NumberOfComponents="1" format="ascii">
          0.592611 0.592681 0.592759 0.592845 0.59294 0.593046 0.593163 0.593292 0.593434 0.593592 0.593765 0.593957
          0.594168 0.5944 0.594657 0.594939 0.595251 0.595594 0.595972 0.59639 0.59685 0.597359 0.597919 0.598539
          0.599224 0.599981 0.600818 0.601746 0.602774 0.603913 0.605179 0.606585 0.608148 0.609888 0.611826 0.613988
          0.616401 0.619096 0.622107 0.625474 0.629239 0.633447 0.638148 0.643391 0.649225 0.655693 0.662828 0.67064
          0.679107 0.688157 0.697651 0.707363 0.716972 0.726082 0.734268 0.741171 0.746597 0.750569 0.753296 0.755073
          0.756187 0.756868 0.757277 0.75752 0.757664 0.757748 0.757798 0.757827 0.757844 0.757854 0.75786 0.757863
          0.757865 0.757867 0.757867 0.757868 0.757868 0.757868 0.757868 0.757868 0.757868 0.757868 0.757868 0.757868
          0.757868 0.757868 0.757868 0.757868 0.757868 0.757868 0.757868 0.757868 0.757868 0.757868 0.757868 0.757868
          0.757868 0.757868 0.757868 0.757868 0.757868
        </DataArray>
        <DataArray type="Float32" Name="Sw" NumberOfComponents="1" format="ascii">
          0.407389 0.407319 0.407241 0.407155 0.40706 0.406954 0.406837 0.406708 0.406566 0.406408 0.406235 0.406043
          0.405832 0.4056 0.405344 0.405061 0.404749 0.404406 0.404028 0.40361 0.40315 0.402641 0.402081 0.401461
          0.400776 0.400019 0.399182 0.398254 0.397226 0.396087 0.394821 0.393415 0.391852 0.390112 0.388174 0.386012
          0.383599 0.380904 0.377893 0.374526 0.370761 0.366553 0.361852 0.356609 0.350775 0.344307 0.337172 0.32936
          0.320893 0.311843 0.302349 0.292637 0.283028 0.273918 0.265732 0.258829 0.253403 0.249431 0.246704 0.244927
          0.243813 0.243132 0.242723 0.24248 0.242336 0.242252 0.242202 0.242173 0.242156 0.242146 0.24214 0.242137
          0.242135 0.242133 0.242133 0.242132 0.242132 0.242132 0.242132 0.242132 0.242132 0.242132 0.242132 0.242132
          0.242132 0.242132 0.242132 0.242132 0.242132 0.242132 0.242132 0.242132 0.242132 0.242132 0.242132 0.242132
          0.242132 0.242132 0.242132 0.242132 0.242132
        </DataArray>
        <DataArray type="Float32" Name="pn" NumberOfComponents="1" format="ascii">
          100000 100000 100000 100000 100000 100000 100000 100000 100000 100000 100000 100000
          100000 100000 100000 100000 100000 100000 100000 100000 100000 100000 100000 100000
          100000 100000 100000 100000 100000 100000 100000 100000 100000 100000 100000 100000
          100000 100000 100000 100000 100000 100000 100000 100000 100000 100000 100000 100000
          100000 100000 100000 100000 100000 100000 100000 100000 100000 100000 100000 100000
          100000 100000 100000 100000 100000 100000 100000 100000 100000 100000 100000 100000
          100000 100000 100000 100000 100000 100000 100000 100000 100000 100000 100000 100000
          100000 100000 100000 100000 100000 100000 100000 100000 100000 100000 100000 100000
          100000 100000 100000 100000 100000
        </DataArray>
        <DataArray type="Float32" Name="pw" NumberOfComponents="1" format="ascii">
          99019 99016.8 99014.4 99011.6 99008.6 99005.3 99001.7 98997.6 98993.1 98988.2 98982.8 98976.8
          98970.2 98963 98955 98946.2 98936.5 98925.9 98914.1 98901.2 98887 98871.4 98854.1 98835.1
          98814.2 98791.1 98765.5 98737.3 98706 98671.4 98633.1 98590.5 98543.1 98490.4 98431.5 98365.6
          98291.9 98209 98115.5 98010 97890.3 97754.1 97598.5 97420.2 97214.9 96977.7 96702.9 96383.6
          96012.6 95582.7 95088.2 94528 93909 93251.4 92590.3 91972.4 91441.8 91025.3 90724.4 90521.3
          90391 90310.3 90261.3 90232.1 90214.7 90204.5 90198.5 90195 90192.9 90191.7 90191 90190.6
          90190.3 90190.2 90190.1 90190.1 90190 90190 90190 90190 90190 90190 90190 90190
          90190 90190 90190 90190 90190 90190 90190 90190 90190 90190 90190 90190
          90190 90190 90190 90190 90190
        </DataArray>
        <DataArray type="Float32" Name="pc" NumberOfComponents="1" format="ascii">
          981 983.204 985.65 988.361 991.361 994.68 998.347 1002.4 1006.86 1011.79 1017.22 1023.2
          1029.79 1037.04 1045.03 1053.82 1063.49 1074.14 1085.86 1098.76 1112.97 1128.61 1145.85 1164.86
          1185.82 1208.95 1234.49 1262.73 1293.96 1328.56 1366.92 1409.51 1456.88 1509.64 1568.51 1634.35
          1708.14 1791.05 1884.47 1990.04 2109.74 2245.94 2401.49 2579.84 2785.11 3022.27 3297.14 3616.43
          3987.43 4417.34 4911.76 5471.99 6090.96 6748.64 7409.66 8027.65 8558.2 8974.7 9275.63 9478.71
          9608.98 9689.72 9738.67 9767.93 9785.27 9795.5 9801.51 9805.04 9807.1 9808.31 9809.01 9809.43
          9809.67 9809.81 9809.89 9809.93 9809.96 9809.98 9809.99 9809.99 9810 9810 9810 9810
          9810 9810 9810 9810 9810 9810 9810 9810 9810 9810 9810 9810
          9810 9810 9810 9810 9810
        </DataArray>
        <DataArray type="Float32" Name="rhoW" NumberOfComponents="1" format="ascii">
          1000 1000 1000 1000 1000 1000 1000 1000 1000 1000 1000 1000
          1000 1000 1000 1000 1000 1000 1000 1000 1000 1000 1000 1000
          1000 1000 1000 1000 1000 1000 1000 1000 1000 1000 1000 1000
          1000 1000 1000 1000 1000 1000 1000 1000 1000 1000 1000 1000
          1000 1000 1000 1000 1000 1000 1000 1000 1000 1000 1000 1000
          1000 1000 1000 1000 1000 1000 1000 1000 1000 1000 1000 1000
          1000 1000 1000 1000 1000 1000 1000 1000 1000 1000 1000 1000
          1000 1000 1000 1000 1000 1000 1000 1000 1000 1000 1000 1000
          1000 1000 1000 1000 1000
        </DataArray>
        <DataArray type="Float32" Name="rhoN" NumberOfComponents="1" format="ascii">
          1e-10 1e-10 1e-10 1e-10 1e-10 1e-10 1e-10 1e-10 1e-10 1e-10 1e-10 1e-10
          1e-10 1e-10 1e-10 1e-10 1e-10 1e-10 1e-10 1e-10 1e-10 1e-10 1e-10 1e-10
          1e-10 1e-10 1e-10 1e-10 1e-10 1e-10 1e-10 1e-10 1e-10 1e-10 1e-10 1e-10
          1e-10 1e-10 1e-10 1e-10 1e-10 1e-10 1e-10 1e-10 1e-10 1e-10 1e-10 1e-10
          1e-10 1e-10 1e-10 1e-10 1e-10 1e-10 1e-10 1e-10 1e-10 1e-10 1e-10 1e-10
          1e-10 1e-10 1e-10 1e-10 1e-10 1e-10 1e-10 1e-10 1e-10 1e-10 1e-10 1e-10
          1e-10 1e-10 1e-10 1e-10 1e-10 1e-10 1e-10 1e-10 1e-10 1e-10 1e-10 1e-10
          1e-10 1e-10 1e-10 1e-10 1e-10 1e-10 1e-10 1e-10 1e-10 1e-10 1e-10 1e-10
          1e-10 1e-10 1e-10 1e-10 1e-10
        </DataArray>
        <DataArray type="Float32" Name="mobW" NumberOfComponents="1" format="ascii">
          215.441 214.915 214.333 213.69 212.981 212.2 211.342 210.398 209.364 208.23 206.99 205.633
          204.152 202.536 200.776 198.859 196.776 194.514 192.061 189.404 186.53 183.427 180.08 176.476
          172.603 168.448 164 159.249 154.186 148.805 143.103 137.078 130.737 124.087 117.144 109.929
          102.473 94.815 87.0023 79.0939 71.1594 63.2788 55.5422 48.0476 40.898 34.1974 28.0447 22.5262
          17.708 13.6277 10.2882 7.65525 5.66032 4.20931 3.19545 2.51331 2.06967 1.78947 1.61665 1.51196
          1.44934 1.41219 1.39026 1.37736 1.36978 1.36534 1.36274 1.36122 1.36032 1.3598 1.3595 1.35932
          1.35922 1.35916 1.35912 1.3591 1.35909 1.35908 1.35908 1.35908 1.35908 1.35908 1.35908 1.35908
          1.35908 1.35908 1.35908 1.35908 1.35908 1.35908 1.35908 1.35908 1.35908 1.35908 1.35908 1.35908
          1.35908 1.35908 1.35908 1.35908 1.35908
        </DataArray>
        <DataArray type="Float32" Name="mobN" NumberOfComponents="1" format="ascii">
          1e+10 1e+10 1e+10 1e+10 1e+10 1e+10 1e+10 1e+10 1e+10 1e+10 1e+10 1e+10
          1e+10 1e+10 1e+10 1e+10 1e+10 1e+10 1e+10 1e+10 1e+10 1e+10 1e+10 1e+10
          1e+10 1e+10 1e+10 1e+10 1e+10 1e+10 1e+10 1e+10 1e+10 1e+10 1e+10 1e+10
          1e+10 1e+10 1e+10 1e+10 1e+10 1e+10 1e+10 1e+10 1e+10 1e+10 1e+10 1e+10
          1e+10 1e+10 1e+10 1e+10 1e+10 1e+10 1e+10 1e+10 1e+10 1e+10 1e+10 1e+10
          1e+10 1e+10 1e+10 1e+10 1e+10 1e+10 1e+10 1e+10 1e+10 1e+10 1e+10 1e+10
          1e+10 1e+10 1e+10 1e+10 1e+10 1e+10 1e+10 1e+10 1e+10 1e+10 1e+10 1e+10
          1e+10 1e+10 1e+10 1e+10 1e+10 1e+10 1e+10 1e+10 1e+10 1e+10 1e+10 1e+10
          1e+10 1e+10 1e+10 1e+10 1e+10
        </DataArray>
        <DataArray type="Float32" Name="porosity" NumberOfComponents="1" format="ascii">
          1 1 1 1 1 1 1 1 1 1 1 1
          1 1 1 1 1 1 1 1 1 1 1 1
          1 1 1 1 1 1 1 1 1 1 1 1
          1 1 1 1 1 1 1 1 1 1 1 1
          1 1 1 1 1 1 1 1 1 1 1 1
          1 1 1 1 1 1 1 1 1 1 1 1
          1 1 1 1 1 1 1 1 1 1 1 1
          1 1 1 1 1 1 1 1 1 1 1 1
          1 1 1 1 1
        </DataArray>
        <DataArray type="Float32" Name="temperature" NumberOfComponents="1" format="ascii">
          283.15 283.15 283.15 283.15 283.15 283.15 283.15 283.15 283.15 283.15 283.15 283.15
          283.15 283.15 283.15 283.15 283.15 283.15 283.15 283.15 283.15 283.15 283.15 283.15
          283.15 283.15 283.15 283.15 283.15 283.15 283.15 283.15 283.15 283.15 283.15 283.15
          283.15 283.15 283.15 283.15 283.15 283.15 283.15 283.15 283.15 283.15 283.15 283.15
          283.15 283.15 283.15 283.15 283.15 283.15 283.15 283.15 283.15 283.15 283.15 283.15
          283.15 283.15 283.15 283.15 283.15 283.15 283.15 283.15 283.15 283.15 283.15 283.15
          283.15 283.15 283.15 283.15 283.15 283.15 283.15 283.15 283.15 283.15 283.15 283.15
          283.15 283.15 283.15 283.15 283.15 283.15 283.15 283.15 283.15 283.15 283.15 283.15
          283.15 283.15 283.15 283.15 283.15
        </DataArray>
        <DataArray type="Float32" Name="pressure head" NumberOfComponents="1" format="ascii">
          -10 -10.0225 -10.0474 -10.075 -10.1056 -10.1395 -10.1768 -10.2181 -10.2636 -10.3139 -10.3692 -10.4302
          -10.4974 -10.5713 -10.6527 -10.7423 -10.8409 -10.9494 -11.0689 -11.2004 -11.3452 -11.5047 -11.6805 -11.8742
          -12.0878 -12.3236 -12.584 -12.8718 -13.1902 -13.5429 -13.9339 -14.3681 -14.851 -15.3888 -15.9889 -16.66
          -17.4122 -18.2574 -19.2097 -20.2858 -21.506 -22.8944 -24.4801 -26.298 -28.3905 -30.8081 -33.61 -36.8647
          -40.6466 -45.029 -50.0689 -55.7797 -62.0893 -68.7934 -75.5317 -81.8313 -87.2395 -91.4852 -94.5528 -96.6229
          -97.9509 -98.7739 -99.2728 -99.5711 -99.7479 -99.8522 -99.9135 -99.9494 -99.9705 -99.9828 -99.99 -99.9941
          -99.9966 -99.998 -99.9988 -99.9993 -99.9996 -99.9998 -99.9999 -99.9999 -100 -100 -100 -100
          -100 -100 -100 -100 -100 -100 -100 -100 -100 -100 -100 -100
          -100 -100 -100 -100 -100
        </DataArray>
        <DataArray type="Float32" Name="water content" NumberOfComponents="1" format="ascii">
          0.407389 0.407319 0.407241 0.407155 0.40706 0.406954 0.406837 0.406708 0.406566 0.406408 0.406235 0.406043
          0.405832 0.4056 0.405344 0.405061 0.404749 0.404406 0.404028 0.40361 0.40315 0.402641 0.402081 0.401461
          0.400776 0.400019 0.399182 0.398254 0.397226 0.396087 0.394821 0.393415 0.391852 0.390112 0.388174 0.386012
          0.383599 0.380904 0.377893 0.374526 0.370761 0.366553 0.361852 0.356609 0.350775 0.344307 0.337172 0.32936
          0.320893 0.311843 0.302349 0.292637 0.283028 0.273918 0.265732 0.258829 0.253403 0.249431 0.246704 0.244927
          0.243813 0.243132 0.242723 0.24248 0.242336 0.242252 0.242202 0.242173 0.242156 0.242146 0.24214 0.242137
          0.242135 0.242133 0.242133 0.242132 0.242132 0.242132 0.242132 0.242132 0.242132 0.242132 0.242132 0.242132
          0.242132 0.242132 0.242132 0.242132 0.242132 0.242132 0.242132 0.242132 0.242132 0.242132 0.242132 0.242132
          0.242132 0.242132 0.242132 0.242132 0.242132
        </DataArray>
      </PointData>
      <CellData Scalars="process rank">
        <DataArray type="Float32" Name="process rank" NumberOfComponents="1" format="ascii">
          0 0 0 0 0 0 0 0 0 0 0 0
          0 0 0 0 0 0 0 0 0 0 0 0
          0 0 0 0 0 0 0 0 0 0 0 0
          0 0 0 0 0 0 0 0 0 0 0 0
          0 0 0 0 0 0 0 0 0 0 0 0
          0 0 0 0 0 0 0 0 0 0 0 0
          0 0 0 0 0 0 0 0 0 0 0 0
          0 0 0 0 0 0 0 0 0 0 0 0
          0 0 0 0
        </DataArray>
      </CellData>
      <Points>
        <DataArray type="Float32" Name="Coordinates" NumberOfComponents="3" format="ascii">
          0 0 0 -0.01 0 0 -0.02 0 0 -0.03 0 0
          -0.04 0 0 -0.05 0 0 -0.06 0 0 -0.07 0 0
          -0.08 0 0 -0.09 0 0 -0.1 0 0 -0.11 0 0
          -0.12 0 0 -0.13 0 0 -0.14 0 0 -0.15 0 0
          -0.16 0 0 -0.17 0 0 -0.18 0 0 -0.19 0 0
          -0.2 0 0 -0.21 0 0 -0.22 0 0 -0.23 0 0
          -0.24 0 0 -0.25 0 0 -0.26 0 0 -0.27 0 0
          -0.28 0 0 -0.29 0 0 -0.3 0 0 -0.31 0 0
          -0.32 0 0 -0.33 0 0 -0.34 0 0 -0.35 0 0
          -0.36 0 0 -0.37 0 0 -0.38 0 0 -0.39 0 0
          -0.4 0 0 -0.41 0 0 -0.42 0 0 -0.43 0 0
          -0.44 0 0 -0.45 0 0 -0.46 0 0 -0.47 0 0
          -0.48 0 0 -0.49 0 0 -0.5 0 0 -0.51 0 0
          -0.52 0 0 -0.53 0 0 -0.54 0 0 -0.55 0 0
          -0.56 0 0 -0.57 0 0 -0.58 0 0 -0.59 0 0
          -0.6 0 0 -0.61 0 0 -0.62 0 0 -0.63 0 0
          -0.64 0 0 -0.65 0 0 -0.66 0 0 -0.67 0 0
          -0.68 0 0 -0.69 0 0 -0.7 0 0 -0.71 0 0
          -0.72 0 0 -0.73 0 0 -0.74 0 0 -0.75 0 0
          -0.76 0 0 -0.77 0 0 -0.78 0 0 -0.79 0 0
          -0.8 0 0 -0.81 0 0 -0.82 0 0 -0.83 0 0
          -0.84 0 0 -0.85 0 0 -0.86 0 0 -0.87 0 0
          -0.88 0 0 -0.89 0 0 -0.9 0 0 -0.91 0 0
          -0.92 0 0 -0.93 0 0 -0.94 0 0 -0.95 0 0
          -0.96 0 0 -0.97 0 0 -0.98 0 0 -0.99 0 0
          -1 0 0
        </DataArray>
      </Points>
      <Lines>
        <DataArray type="Int32" Name="connectivity" NumberOfComponents="1" format="ascii">
          0 1 1 2 2 3 3 4 4 5 5 6
          6 7 7 8 8 9 9 10 10 11 11 12
          12 13 13 14 14 15 15 16 16 17 17 18
          18 19 19 20 20 21 21 22 22 23 23 24
          24 25 25 26 26 27 27 28 28 29 29 30
          30 31 31 32 32 33 33 34 34 35 35 36
          36 37 37 38 38 39 39 40 40 41 41 42
          42 43 43 44 44 45 45 46 46 47 47 48
          48 49 49 50 50 51 51 52 52 53 53 54
          54 55 55 56 56 57 57 58 58 59 59 60
          60 61 61 62 62 63 63 64 64 65 65 66
          66 67 67 68 68 69 69 70 70 71 71 72
          72 73 73 74 74 75 75 76 76 77 77 78
          78 79 79 80 80 81 81 82 82 83 83 84
          84 85 85 86 86 87 87 88 88 89 89 90
          90 91 91 92 92 93 93 94 94 95 95 96
          96 97 97 98 98 99 99 100
        </DataArray>
        <DataArray type="Int32" Name="offsets" NumberOfComponents="1" format="ascii">
          2 4 6 8 10 12 14 16 18 20 22 24
          26 28 30 32 34 36 38 40 42 44 46 48
          50 52 54 56 58 60 62 64 66 68 70 72
          74 76 78 80 82 84 86 88 90 92 94 96
          98 100 102 104 106 108 110 112 114 116 118 120
          122 124 126 128 130 132 134 136 138 140 142 144
          146 148 150 152 154 156 158 160 162 164 166 168
          170 172 174 176 178 180 182 184 186 188 190 192
          194 196 198 200
        </DataArray>
      </Lines>
    </Piece>
  </PolyData>
</VTKFile>
