<?xml version="1.0"?>
<VTKFile type="PolyData" version="0.1" byte_order="LittleEndian">
  <PolyData>
    <Piece NumberOfLines="100" NumberOfPoints="101">
      <PointData Scalars="Sn">
        <DataArray type="Float32" Name="Sn" NumberOfComponents="1" format="ascii">
          0.592611 0.592611 0.592611 0.592612 0.592612 0.592612 0.592613 0.592613 0.592613 0.592614 0.592614 0.592615
          0.592615 0.592616 0.592617 0.592617 0.592618 0.592619 0.59262 0.592622 0.592623 0.592624 0.592626 0.592628
          0.59263 0.592632 0.592635 0.592637 0.59264 0.592644 0.592647 0.592652 0.592656 0.592661 0.592667 0.592673
          0.59268 0.592688 0.592697 0.592706 0.592717 0.592728 0.592741 0.592756 0.592772 0.59279 0.592809 0.592831
          0.592855 0.592882 0.592912 0.592945 0.592982 0.593023 0.593068 0.593118 0.593174 0.593236 0.593305 0.593382
          0.593467 0.593562 0.593667 0.593784 0.593915 0.59406 0.594222 0.594402 0.594603 0.594827 0.595078 0.595358
          0.595671 0.596021 0.596413 0.596853 0.597347 0.597903 0.598529 0.599236 0.600035 0.600939 0.601967 0.603137
          0.604474 0.606005 0.607767 0.609803 0.612167 0.614927 0.61817 0.622011 0.6266 0.63214 0.638917 0.647339
          0.658022 0.671938 0.690732 0.717414 0.757868
        </DataArray>
        <DataArray type="Float32" Name="Sw" NumberOfComponents="1" format="ascii">
          0.407389 0.407389 0.407389 0.407388 0.407388 0.407388 0.407387 0.407387 0.407387 0.407386 0.407386 0.407385
          0.407385 0.407384 0.407383 0.407383 0.407382 0.407381 0.40738 0.407378 0.407377 0.407376 0.407374 0.407372
          0.40737 0.407368 0.407365 0.407363 0.40736 0.407356 0.407352 0.407348 0.407344 0.407339 0.407333 0.407327
          0.40732 0.407312 0.407303 0.407294 0.407283 0.407272 0.407259 0.407244 0.407228 0.40721 0.407191 0.407169
          0.407145 0.407118 0.407088 0.407055 0.407018 0.406977 0.406932 0.406882 0.406826 0.406764 0.406695 0.406618
          0.406533 0.406438 0.406333 0.406216 0.406085 0.40594 0.405778 0.405598 0.405397 0.405173 0.404922 0.404642
          0.404329 0.403979 0.403587 0.403147 0.402653 0.402097 0.401471 0.400764 0.399965 0.399061 0.398033 0.396863
          0.395526 0.393995 0.392233 0.390197 0.387833 0.385073 0.38183 0.377989 0.3734 0.36786 0.361083 0.352661
          0.341978 0.328062 0.309268 0.282586 0.242132
        </DataArray>
        <DataArray type="Float32" Name="pn" NumberOfComponents="1" format="ascii">
          100000 100000 100000 100000 100000 100000 100000 100000 100000 100000 100000 100000
          100000 100000 100000 100000 100000 100000 100000 100000 100000 100000 100000 100000
          100000 100000 100000 100000 100000 100000 100000 100000 100000 100000 100000 100000
          100000 100000 100000 100000 100000 100000 100000 100000 100000 100000 100000 100000
          100000 100000 100000 100000 100000 100000 100000 100000 100000 100000 100000 100000
          100000 100000 100000 100000 100000 100000 100000 100000 100000 100000 100000 100000
          100000 100000 100000 100000 100000 100000 100000 100000 100000 100000 100000 100000
          100000 100000 100000 100000 100000 100000 100000 100000 100000 100000 100000 100000
          100000 100000 100000 100000 100000
        </DataArray>
        <DataArray type="Float32" Name="pw" NumberOfComponents="1" format="ascii">
          99019 99019 99019 99019 99019 99019 99019 99018.9 99018.9 99018.9 99018.9 99018.9
          99018.9 99018.8 99018.8 99018.8 99018.8 99018.7 99018.7 99018.7 99018.6 99018.6 99018.5 99018.5
          99018.4 99018.3 99018.3 99018.2 99018.1 99018 99017.9 99017.7 99017.6 99017.4 99017.2 99017
          99016.8 99016.6 99016.3 99016 99015.7 99015.3 99014.9 99014.4 99013.9 99013.4 99012.8 99012.1
          99011.3 99010.5 99009.5 99008.5 99007.3 99006.1 99004.6 99003.1 99001.3 98999.4 98997.2 98994.8
          98992.1 98989.1 98985.9 98982.2 98978.1 98973.6 98968.5 98962.9 98956.6 98949.7 98941.9 98933.2
          98923.5 98912.6 98900.5 98886.9 98871.7 98854.6 98835.4 98813.8 98789.4 98761.8 98730.5 98695
          98654.5 98608 98554.6 98492.9 98421.1 98337 98237.5 98118.5 97974.4 97796.6 97572.7 97282.1
          96889.6 96328.5 95453.3 93878.8 90190
        </DataArray>
        <DataArray type="Float32" Name="pc" NumberOfComponents="1" format="ascii">
          981 981.006 981.012 981.02 981.028 981.037 981.047 981.057 981.07 981.083 981.098 981.115
          981.133 981.153 981.176 981.201 981.229 981.26 981.294 981.332 981.374 981.42 981.472 981.529
          981.592 981.663 981.741 981.828 981.923 982.03 982.148 982.279 982.424 982.585 982.764 982.962
          983.181 983.425 983.695 983.994 984.326 984.695 985.104 985.557 986.06 986.618 987.237 987.923
          988.685 989.53 990.468 991.509 992.664 993.946 995.369 996.949 998.703 1000.65 1002.81 1005.22
          1007.89 1010.85 1014.15 1017.82 1021.9 1026.43 1031.48 1037.1 1043.37 1050.35 1058.13 1066.82
          1076.51 1087.35 1099.48 1113.05 1128.27 1145.36 1164.56 1186.19 1210.59 1238.18 1269.45 1305
          1345.55 1391.97 1445.35 1507.07 1578.86 1663.01 1762.51 1881.47 2025.64 2203.35 2427.32 2717.93
          3110.38 3671.54 4546.71 6121.15 9810
        </DataArray>
        <DataArray type="Float32" Name="rhoW" NumberOfComponents="1" format="ascii">
          1000 1000 1000 1000 1000 1000 1000 1000 1000 1000 1000 1000
          1000 1000 1000 1000 1000 1000 1000 1000 1000 1000 1000 1000
          1000 1000 1000 1000 1000 1000 1000 1000 1000 1000 1000 1000
          1000 1000 1000 1000 1000 1000 1000 1000 1000 1000 1000 1000
          1000 1000 1000 1000 1000 1000 1000 1000 1000 1000 1000 1000
          1000 1000 1000 1000 1000 1000 1000 1000 1000 1000 1000 1000
          1000 1000 1000 1000 1000 1000 1000 1000 1000 1000 1000 1000
          1000 1000 1000 1000 1000 1000 1000 1000 1000 1000 1000 1000
          1000 1000 1000 1000 1000
        </DataArray>
        <DataArray type="Float32" Name="rhoN" NumberOfComponents="1" format="ascii">
          1e-10 1e-10 1e-10 1e-10 1e-10 1e-10 1e-10 1e-10 1e-10 1e-10 1e-10 1e-10
          1e-10 1e-10 1e-10 1e-10 1e-10 1e-10 1e-10 1e-10 1e-10 1e-10 1e-10 1e-10
          1e-10 1e-10 1e-10 1e-10 1e-10 1e-10 1e-10 1e-10 1e-10 1e-10 1e-10 1e-10
          1e-10 1e-10 1e-10 1e-10 1e-10 1e-10 1e-10 1e-10 1e-10 1e-10 1e-10 1e-10
          1e-10 1e-10 1e-10 1e-10 1e-10 1e-10 1e-10 1e-10 1e-10 1e-10 1e-10 1e-10
          1e-10 1e-10 1e-10 1e-10 1e-10 1e-10 1e-10 1e-10 1e-10 1e-10 1e-10 1e-10
          1e-10 1e-10 1e-10 1e-10 1e-10 1e-10 1e-10 1e-10 1e-10 1e-10 1e-10 1e-10
          1e-10 1e-10 1e-10 1e-10 1e-10 1e-10 1e-10 1e-10 1e-10 1e-10 1e-10 1e-10
          1e-10 1e-10 1e-10 1e-10 1e-10
        </DataArray>
        <DataArray type="Float32" Name="mobW" NumberOfComponents="1" format="ascii">
          215.441 215.44 215.438 215.437 215.435 215.432 215.43 215.427 215.425 215.421 215.418 215.414
          215.409 215.405 215.399 215.393 215.387 215.379 215.371 215.362 215.352 215.341 215.328 215.315
          215.3 215.283 215.264 215.243 215.221 215.195 215.167 215.136 215.101 215.063 215.02 214.973
          214.92 214.862 214.798 214.727 214.648 214.56 214.463 214.355 214.235 214.103 213.956 213.793
          213.613 213.413 213.192 212.946 212.674 212.372 212.038 211.668 211.258 210.804 210.301 209.744
          209.128 208.445 207.69 206.853 205.928 204.905 203.774 202.523 201.141 199.614 197.928 196.067
          194.014 191.751 189.258 186.513 183.494 180.175 176.531 172.534 168.157 163.369 158.142 152.444
          146.246 139.522 132.247 124.401 115.972 106.958 97.37 87.2403 76.6266 65.6229 54.3723 43.0842
          32.058 21.7152 12.6363 5.58093 1.35908
        </DataArray>
        <DataArray type="Float32" Name="mobN" NumberOfComponents="1" format="ascii">
          1e+10 1e+10 1e+10 1e+10 1e+10 1e+10 1e+10 1e+10 1e+10 1e+10 1e+10 1e+10
          1e+10 1e+10 1e+10 1e+10 1e+10 1e+10 1e+10 1e+10 1e+10 1e+10 1e+10 1e+10
          1e+10 1e+10 1e+10 1e+10 1e+10 1e+10 1e+10 1e+10 1e+10 1e+10 1e+10 1e+10
          1e+10 1e+10 1e+10 1e+10 1e+10 1e+10 1e+10 1e+10 1e+10 1e+10 1e+10 1e+10
          1e+10 1e+10 1e+10 1e+10 1e+10 1e+10 1e+10 1e+10 1e+10 1e+10 1e+10 1e+10
          1e+10 1e+10 1e+10 1e+10 1e+10 1e+10 1e+10 1e+10 1e+10 1e+10 1e+10 1e+10
          1e+10 1e+10 1e+10 1e+10 1e+10 1e+10 1e+10 1e+10 1e+10 1e+10 1e+10 1e+10
          1e+10 1e+10 1e+10 1e+10 1e+10 1e+10 1e+10 1e+10 1e+10 1e+10 1e+10 1e+10
          1e+10 1e+10 1e+10 1e+10 1e+10
        </DataArray>
        <DataArray type="Float32" Name="porosity" NumberOfComponents="1" format="ascii">
          1 1 1 1 1 1 1 1 1 1 1 1
          1 1 1 1 1 1 1 1 1 1 1 1
          1 1 1 1 1 1 1 1 1 1 1 1
          1 1 1 1 1 1 1 1 1 1 1 1
          1 1 1 1 1 1 1 1 1 1 1 1
          1 1 1 1 1 1 1 1 1 1 1 1
          1 1 1 1 1 1 1 1 1 1 1 1
          1 1 1 1 1 1 1 1 1 1 1 1
          1 1 1 1 1
        </DataArray>
        <DataArray type="Float32" Name="temperature" NumberOfComponents="1" format="ascii">
          283.15 283.15 283.15 283.15 283.15 283.15 283.15 283.15 283.15 283.15 283.15 283.15
          283.15 283.15 283.15 283.15 283.15 283.15 283.15 283.15 283.15 283.15 283.15 283.15
          283.15 283.15 283.15 283.15 283.15 283.15 283.15 283.15 283.15 283.15 283.15 283.15
          283.15 283.15 283.15 283.15 283.15 283.15 283.15 283.15 283.15 283.15 283.15 283.15
          283.15 283.15 283.15 283.15 283.15 283.15 283.15 283.15 283.15 283.15 283.15 283.15
          283.15 283.15 283.15 283.15 283.15 283.15 283.15 283.15 283.15 283.15 283.15 283.15
          283.15 283.15 283.15 283.15 283.15 283.15 283.15 283.15 283.15 283.15 283.15 283.15
          283.15 283.15 283.15 283.15 283.15 283.15 283.15 283.15 283.15 283.15 283.15 283.15
          283.15 283.15 283.15 283.15 283.15
        </DataArray>
        <DataArray type="Float32" Name="pressure head" NumberOfComponents="1" format="ascii">
          -10 -10.0001 -10.0001 -10.0002 -10.0003 -10.0004 -10.0005 -10.0006 -10.0007 -10.0008 -10.001 -10.0012
          -10.0014 -10.0016 -10.0018 -10.002 -10.0023 -10.0026 -10.003 -10.0034 -10.0038 -10.0043 -10.0048 -10.0054
          -10.006 -10.0068 -10.0076 -10.0084 -10.0094 -10.0105 -10.0117 -10.013 -10.0145 -10.0162 -10.018 -10.02
          -10.0222 -10.0247 -10.0275 -10.0305 -10.0339 -10.0377 -10.0418 -10.0465 -10.0516 -10.0573 -10.0636 -10.0706
          -10.0783 -10.087 -10.0965 -10.1071 -10.1189 -10.132 -10.1465 -10.1626 -10.1805 -10.2003 -10.2224 -10.2469
          -10.2741 -10.3043 -10.3379 -10.3753 -10.4169 -10.4631 -10.5146 -10.5719 -10.6358 -10.7069 -10.7862 -10.8748
          -10.9736 -11.0841 -11.2077 -11.3461 -11.5013 -11.6754 -11.8712 -12.0917 -12.3404 -12.6216 -12.9404 -13.3028
          -13.7161 -14.1893 -14.7334 -15.3626 -16.0944 -16.9522 -17.9665 -19.1791 -20.6487 -22.4603 -24.7433 -27.7057
          -31.7062 -37.4265 -46.3477 -62.3971 -100
        </DataArray>
        <DataArray type="Float32" Name="water content" NumberOfComponents="1" format="ascii">
          0.407389 0.407389 0.407389 0.407388 0.407388 0.407388 0.407387 0.407387 0.407387 0.407386 0.407386 0.407385
          0.407385 0.407384 0.407383 0.407383 0.407382 0.407381 0.40738 0.407378 0.407377 0.407376 0.407374 0.407372
          0.40737 0.407368 0.407365 0.407363 0.40736 0.407356 0.407352 0.407348 0.407344 0.407339 0.407333 0.407327
          0.40732 0.407312 0.407303 0.407294 0.407283 0.407272 0.407259 0.407244 0.407228 0.40721 0.407191 0.407169
          0.407145 0.407118 0.407088 0.407055 0.407018 0.406977 0.406932 0.406882 0.406826 0.406764 0.406695 0.406618
          0.406533 0.406438 0.406333 0.406216 0.406085 0.40594 0.405778 0.405598 0.405397 0.405173 0.404922 0.404642
          0.404329 0.403979 0.403587 0.403147 0.402653 0.402097 0.401471 0.400764 0.399965 0.399061 0.398033 0.396863
          0.395526 0.393995 0.392233 0.390197 0.387833 0.385073 0.38183 0.377989 0.3734 0.36786 0.361083 0.352661
          0.341978 0.328062 0.309268 0.282586 0.242132
        </DataArray>
      </PointData>
      <CellData Scalars="process rank">
        <DataArray type="Float32" Name="process rank" NumberOfComponents="1" format="ascii">
          0 0 0 0 0 0 0 0 0 0 0 0
          0 0 0 0 0 0 0 0 0 0 0 0
          0 0 0 0 0 0 0 0 0 0 0 0
          0 0 0 0 0 0 0 0 0 0 0 0
          0 0 0 0 0 0 0 0 0 0 0 0
          0 0 0 0 0 0 0 0 0 0 0 0
          0 0 0 0 0 0 0 0 0 0 0 0
          0 0 0 0 0 0 0 0 0 0 0 0
          0 0 0 0
        </DataArray>
      </CellData>
      <Points>
        <DataArray type="Float32" Name="Coordinates" NumberOfComponents="3" format="ascii">
          0 0 0 -0.01 0 0 -0.02 0 0 -0.03 0 0
          -0.04 0 0 -0.05 0 0 -0.06 0 0 -0.07 0 0
          -0.08 0 0 -0.09 0 0 -0.1 0 0 -0.11 0 0
          -0.12 0 0 -0.13 0 0 -0.14 0 0 -0.15 0 0
          -0.16 0 0 -0.17 0 0 -0.18 0 0 -0.19 0 0
          -0.2 0 0 -0.21 0 0 -0.22 0 0 -0.23 0 0
          -0.24 0 0 -0.25 0 0 -0.26 0 0 -0.27 0 0
          -0.28 0 0 -0.29 0 0 -0.3 0 0 -0.31 0 0
          -0.32 0 0 -0.33 0 0 -0.34 0 0 -0.35 0 0
          -0.36 0 0 -0.37 0 0 -0.38 0 0 -0.39 0 0
          -0.4 0 0 -0.41 0 0 -0.42 0 0 -0.43 0 0
          -0.44 0 0 -0.45 0 0 -0.46 0 0 -0.47 0 0
          -0.48 0 0 -0.49 0 0 -0.5 0 0 -0.51 0 0
          -0.52 0 0 -0.53 0 0 -0.54 0 0 -0.55 0 0
          -0.56 0 0 -0.57 0 0 -0.58 0 0 -0.59 0 0
          -0.6 0 0 -0.61 0 0 -0.62 0 0 -0.63 0 0
          -0.64 0 0 -0.65 0 0 -0.66 0 0 -0.67 0 0
          -0.68 0 0 -0.69 0 0 -0.7 0 0 -0.71 0 0
          -0.72 0 0 -0.73 0 0 -0.74 0 0 -0.75 0 0
          -0.76 0 0 -0.77 0 0 -0.78 0 0 -0.79 0 0
          -0.8 0 0 -0.81 0 0 -0.82 0 0 -0.83 0 0
          -0.84 0 0 -0.85 0 0 -0.86 0 0 -0.87 0 0
          -0.88 0 0 -0.89 0 0 -0.9 0 0 -0.91 0 0
          -0.92 0 0 -0.93 0 0 -0.94 0 0 -0.95 0 0
          -0.96 0 0 -0.97 0 0 -0.98 0 0 -0.99 0 0
          -1 0 0
        </DataArray>
      </Points>
      <Lines>
        <DataArray type="Int32" Name="connectivity" NumberOfComponents="1" format="ascii">
          0 1 1 2 2 3 3 4 4 5 5 6
          6 7 7 8 8 9 9 10 10 11 11 12
          12 13 13 14 14 15 15 16 16 17 17 18
          18 19 19 20 20 21 21 22 22 23 23 24
          24 25 25 26 26 27 27 28 28 29 29 30
          30 31 31 32 32 33 33 34 34 35 35 36
          36 37 37 38 38 39 39 40 40 41 41 42
          42 43 43 44 44 45 45 46 46 47 47 48
          48 49 49 50 50 51 51 52 52 53 53 54
          54 55 55 56 56 57 57 58 58 59 59 60
          60 61 61 62 62 63 63 64 64 65 65 66
          66 67 67 68 68 69 69 70 70 71 71 72
          72 73 73 74 74 75 75 76 76 77 77 78
          78 79 79 80 80 81 81 82 82 83 83 84
          84 85 85 86 86 87 87 88 88 89 89 90
          90 91 91 92 92 93 93 94 94 95 95 96
          96 97 97 98 98 99 99 100
        </DataArray>
        <DataArray type="Int32" Name="offsets" NumberOfComponents="1" format="ascii">
          2 4 6 8 10 12 14 16 18 20 22 24
          26 28 30 32 34 36 38 40 42 44 46 48
          50 52 54 56 58 60 62 64 66 68 70 72
          74 76 78 80 82 84 86 88 90 92 94 96
          98 100 102 104 106 108 110 112 114 116 118 120
          122 124 126 128 130 132 134 136 138 140 142 144
          146 148 150 152 154 156 158 160 162 164 166 168
          170 172 174 176 178 180 182 184 186 188 190 192
          194 196 198 200
        </DataArray>
      </Lines>
    </Piece>
  </PolyData>
</VTKFile>
