<?xml version="1.0"?>
<VTKFile type="PolyData" version="0.1" byte_order="LittleEndian">
  <PolyData>
    <Piece NumberOfLines="200" NumberOfPoints="201">
      <PointData Scalars="Sn">
        <DataArray type="Float32" Name="Sn" NumberOfComponents="1" format="ascii">
          0.899963 0.899963 0.899963 0.899963 0.899963 0.899963 0.899963 0.899963 0.899963 0.899963 0.899963 0.899963
          0.899963 0.899963 0.899963 0.899964 0.899964 0.899964 0.899964 0.899965 0.899965 0.899966 0.899967 0.899968
          0.89997 0.899973 0.899977 0.899983 0.89999 0.9 0.900015 0.900035 0.900062 0.9001 0.900153 0.900227
          0.900328 0.90047 0.900666 0.900939 0.901319 0.901849 0.90259 0.90363 0.905098 0.907185 0.91019 0.914594
          0.921228 0.931575 0.704755 0.704755 0.704755 0.704755 0.704755 0.704755 0.704755 0.704755 0.704755 0.704755
          0.704755 0.704755 0.704755 0.704755 0.704755 0.704755 0.704755 0.704755 0.704755 0.704755 0.704755 0.704755
          0.704755 0.704755 0.704755 0.704755 0.704755 0.704755 0.704755 0.704755 0.704755 0.704755 0.704755 0.704755
          0.704755 0.704755 0.704755 0.704755 0.704755 0.704755 0.704755 0.704755 0.704755 0.704755 0.704755 0.704755
          0.704755 0.704755 0.704755 0.704755 0.704755 0.704755 0.704755 0.704755 0.704755 0.704755 0.704755 0.704755
          0.704755 0.704755 0.704755 0.704755 0.704755 0.704755 0.704755 0.704755 0.704755 0.704755 0.704755 0.704755
          0.704755 0.704755 0.704755 0.704755 0.704755 0.704755 0.704755 0.704755 0.704755 0.704755 0.704755 0.704755
          0.704755 0.704755 0.704755 0.704755 0.704755 0.704755 0.704755 0.704755 0.704755 0.704755 0.704755 0.704755
          0.704755 0.704755 0.704755 0.704755 0.704755 0.704755 0.704755 0.704755 0.704755 0.704755 0.704755 0.704755
          0.704755 0.704755 0.704755 0.704755 0.704755 0.704755 0.704755 0.704755 0.704755 0.704755 0.704755 0.704755
          0.704755 0.704755 0.704755 0.704755 0.704755 0.704755 0.704755 0.704755 0.704755 0.704755 0.704755 0.704755
          0.704755 0.704755 0.704755 0.704755 0.704755 0.704755 0.704755 0.704755 0.704755 0.704755 0.704755 0.704755
          0.704755 0.704755 0.704755 0.704755 0.704755 0.704755 0.704755 0.704755 0.704755
        </DataArray>
        <DataArray type="Float32" Name="Sw" NumberOfComponents="1" format="ascii">
          0.100037 0.100037 0.100037 0.100037 0.100037 0.100037 0.100037 0.100037 0.100037 0.100037 0.100037 0.100037
          0.100037 0.100037 0.100037 0.100036 0.100036 0.100036 0.100036 0.100035 0.100035 0.100034 0.100033 0.100032
          0.10003 0.100027 0.100023 0.100017 0.10001 0.0999996 0.0999853 0.0999654 0.0999379 0.0998997 0.0998468 0.0997734
          0.0996716 0.0995302 0.0993339 0.0990609 0.098681 0.0981511 0.0974101 0.09637 0.0949024 0.0928148 0.0898099 0.0854059
          0.0787723 0.0684255 0.295245 0.295245 0.295245 0.295245 0.295245 0.295245 0.295245 0.295245 0.295245 0.295245
          0.295245 0.295245 0.295245 0.295245 0.295245 0.295245 0.295245 0.295245 0.295245 0.295245 0.295245 0.295245
          0.295245 0.295245 0.295245 0.295245 0.295245 0.295245 0.295245 0.295245 0.295245 0.295245 0.295245 0.295245
          0.295245 0.295245 0.295245 0.295245 0.295245 0.295245 0.295245 0.295245 0.295245 0.295245 0.295245 0.295245
          0.295245 0.295245 0.295245 0.295245 0.295245 0.295245 0.295245 0.295245 0.295245 0.295245 0.295245 0.295245
          0.295245 0.295245 0.295245 0.295245 0.295245 0.295245 0.295245 0.295245 0.295245 0.295245 0.295245 0.295245
          0.295245 0.295245 0.295245 0.295245 0.295245 0.295245 0.295245 0.295245 0.295245 0.295245 0.295245 0.295245
          0.295245 0.295245 0.295245 0.295245 0.295245 0.295245 0.295245 0.295245 0.295245 0.295245 0.295245 0.295245
          0.295245 0.295245 0.295245 0.295245 0.295245 0.295245 0.295245 0.295245 0.295245 0.295245 0.295245 0.295245
          0.295245 0.295245 0.295245 0.295245 0.295245 0.295245 0.295245 0.295245 0.295245 0.295245 0.295245 0.295245
          0.295245 0.295245 0.295245 0.295245 0.295245 0.295245 0.295245 0.295245 0.295245 0.295245 0.295245 0.295245
          0.295245 0.295245 0.295245 0.295245 0.295245 0.295245 0.295245 0.295245 0.295245 0.295245 0.295245 0.295245
          0.295245 0.295245 0.295245 0.295245 0.295245 0.295245 0.295245 0.295245 0.295245
        </DataArray>
        <DataArray type="Float32" Name="pn" NumberOfComponents="1" format="ascii">
          100000 100000 100000 100000 100000 100000 100000 100000 100000 100000 100000 100000
          100000 100000 100000 100000 100000 100000 100000 100000 100000 100000 100000 100000
          100000 100000 100000 100000 100000 100000 100000 100000 100000 100000 100000 100000
          100000 100000 100000 100000 100000 100000 100000 100000 100000 100000 100000 100000
          100000 100000 100000 100000 100000 100000 100000 100000 100000 100000 100000 100000
          100000 100000 100000 100000 100000 100000 100000 100000 100000 100000 100000 100000
          100000 100000 100000 100000 100000 100000 100000 100000 100000 100000 100000 100000
          100000 100000 100000 100000 100000 100000 100000 100000 100000 100000 100000 100000
          100000 100000 100000 100000 100000 100000 100000 100000 100000 100000 100000 100000
          100000 100000 100000 100000 100000 100000 100000 100000 100000 100000 100000 100000
          100000 100000 100000 100000 100000 100000 100000 100000 100000 100000 100000 100000
          100000 100000 100000 100000 100000 100000 100000 100000 100000 100000 100000 100000
          100000 100000 100000 100000 100000 100000 100000 100000 100000 100000 100000 100000
          100000 100000 100000 100000 100000 100000 100000 100000 100000 100000 100000 100000
          100000 100000 100000 100000 100000 100000 100000 100000 100000 100000 100000 100000
          100000 100000 100000 100000 100000 100000 100000 100000 100000 100000 100000 100000
          100000 100000 100000 100000 100000 100000 100000 100000 100000
        </DataArray>
        <DataArray type="Float32" Name="pw" NumberOfComponents="1" format="ascii">
          98302 98302 98302 98302 98302 98302 98302 98302 98302 98302 98302 98302
          98302 98302 98302 98302 98302 98302 98302 98302 98302 98302 98301.9 98301.9
          98301.9 98301.8 98301.8 98301.7 98301.6 98301.4 98301.2 98300.8 98300.4 98299.8 98298.9 98297.7
          98296 98293.7 98290.4 98285.9 98279.5 98270.5 98257.6 98239.2 98212.2 98171.7 98108.7 98004.4
          97811.1 97362 95483.9 95483.9 95483.9 95483.9 95483.9 95483.9 95483.9 95483.9 95483.9 95483.9
          95483.9 95483.9 95483.9 95483.9 95483.9 95483.9 95483.9 95483.9 95483.9 95483.9 95483.9 95483.9
          95483.9 95483.9 95483.9 95483.9 95483.9 95483.9 95483.9 95483.9 95483.9 95483.9 95483.9 95483.9
          95483.9 95483.9 95483.9 95483.9 95483.9 95483.9 95483.9 95483.9 95483.9 95483.9 95483.9 95483.9
          95483.9 95483.9 95483.9 95483.9 95483.9 95483.9 95483.9 95483.9 95483.9 95483.9 95483.9 95483.9
          95483.9 95483.9 95483.9 95483.9 95483.9 95483.9 95483.9 95483.9 95483.9 95483.9 95483.9 95483.9
          95483.9 95483.9 95483.9 95483.9 95483.9 95483.9 95483.9 95483.9 95483.9 95483.9 95483.9 95483.9
          95483.9 95483.9 95483.9 95483.9 95483.9 95483.9 95483.9 95483.9 95483.9 95483.9 95483.9 95483.9
          95483.9 95483.9 95483.9 95483.9 95483.9 95483.9 95483.9 95483.9 95483.9 95483.9 95483.9 95483.9
          95483.9 95483.9 95483.9 95483.9 95483.9 95483.9 95483.9 95483.9 95483.9 95483.9 95483.9 95483.9
          95483.9 95483.9 95483.9 95483.9 95483.9 95483.9 95483.9 95483.9 95483.9 95483.9 95483.9 95483.9
          95483.9 95483.9 95483.9 95483.9 95483.9 95483.9 95483.9 95483.9 95483.9 95483.9 95483.9 95483.9
          95483.9 95483.9 95483.9 95483.9 95483.9 95483.9 95483.9 95483.9 95483.9
        </DataArray>
        <DataArray type="Float32" Name="pc" NumberOfComponents="1" format="ascii">
          1698 1698 1698 1698 1698 1698 1698 1698 1698 1698 1698 1698
          1698 1698 1698 1698.01 1698.01 1698.01 1698.02 1698.02 1698.03 1698.04 1698.06 1698.09
          1698.12 1698.16 1698.23 1698.32 1698.44 1698.61 1698.84 1699.16 1699.61 1700.24 1701.11 1702.31
          1703.98 1706.32 1709.57 1714.12 1720.51 1729.53 1742.37 1760.84 1787.84 1828.3 1891.28 1995.62
          2188.86 2638 4516.15 4516.15 4516.15 4516.15 4516.15 4516.15 4516.15 4516.15 4516.15 4516.15
          4516.15 4516.15 4516.15 4516.15 4516.15 4516.15 4516.15 4516.15 4516.15 4516.15 4516.15 4516.15
          4516.15 4516.15 4516.15 4516.15 4516.15 4516.15 4516.15 4516.15 4516.15 4516.15 4516.15 4516.15
          4516.15 4516.15 4516.15 4516.15 4516.15 4516.15 4516.15 4516.15 4516.15 4516.15 4516.15 4516.15
          4516.15 4516.15 4516.15 4516.15 4516.15 4516.15 4516.15 4516.15 4516.15 4516.15 4516.15 4516.15
          4516.15 4516.15 4516.15 4516.15 4516.15 4516.15 4516.15 4516.15 4516.15 4516.15 4516.15 4516.15
          4516.15 4516.15 4516.15 4516.15 4516.15 4516.15 4516.15 4516.15 4516.15 4516.15 4516.15 4516.15
          4516.15 4516.15 4516.15 4516.15 4516.15 4516.15 4516.15 4516.15 4516.15 4516.15 4516.15 4516.15
          4516.15 4516.15 4516.15 4516.15 4516.15 4516.15 4516.15 4516.15 4516.15 4516.15 4516.15 4516.15
          4516.15 4516.15 4516.15 4516.15 4516.15 4516.15 4516.15 4516.15 4516.15 4516.15 4516.15 4516.15
          4516.15 4516.15 4516.15 4516.15 4516.15 4516.15 4516.15 4516.15 4516.15 4516.15 4516.15 4516.15
          4516.15 4516.15 4516.15 4516.15 4516.15 4516.15 4516.15 4516.15 4516.15 4516.15 4516.15 4516.15
          4516.15 4516.15 4516.15 4516.15 4516.15 4516.15 4516.15 4516.15 4516.15
        </DataArray>
        <DataArray type="Float32" Name="rhoW" NumberOfComponents="1" format="ascii">
          1000 1000 1000 1000 1000 1000 1000 1000 1000 1000 1000 1000
          1000 1000 1000 1000 1000 1000 1000 1000 1000 1000 1000 1000
          1000 1000 1000 1000 1000 1000 1000 1000 1000 1000 1000 1000
          1000 1000 1000 1000 1000 1000 1000 1000 1000 1000 1000 1000
          1000 1000 1000 1000 1000 1000 1000 1000 1000 1000 1000 1000
          1000 1000 1000 1000 1000 1000 1000 1000 1000 1000 1000 1000
          1000 1000 1000 1000 1000 1000 1000 1000 1000 1000 1000 1000
          1000 1000 1000 1000 1000 1000 1000 1000 1000 1000 1000 1000
          1000 1000 1000 1000 1000 1000 1000 1000 1000 1000 1000 1000
          1000 1000 1000 1000 1000 1000 1000 1000 1000 1000 1000 1000
          1000 1000 1000 1000 1000 1000 1000 1000 1000 1000 1000 1000
          1000 1000 1000 1000 1000 1000 1000 1000 1000 1000 1000 1000
          1000 1000 1000 1000 1000 1000 1000 1000 1000 1000 1000 1000
          1000 1000 1000 1000 1000 1000 1000 1000 1000 1000 1000 1000
          1000 1000 1000 1000 1000 1000 1000 1000 1000 1000 1000 1000
          1000 1000 1000 1000 1000 1000 1000 1000 1000 1000 1000 1000
          1000 1000 1000 1000 1000 1000 1000 1000 1000
        </DataArray>
        <DataArray type="Float32" Name="rhoN" NumberOfComponents="1" format="ascii">
          1e-10 1e-10 1e-10 1e-10 1e-10 1e-10 1e-10 1e-10 1e-10 1e-10 1e-10 1e-10
          1e-10 1e-10 1e-10 1e-10 1e-10 1e-10 1e-10 1e-10 1e-10 1e-10 1e-10 1e-10
          1e-10 1e-10 1e-10 1e-10 1e-10 1e-10 1e-10 1e-10 1e-10 1e-10 1e-10 1e-10
          1e-10 1e-10 1e-10 1e-10 1e-10 1e-10 1e-10 1e-10 1e-10 1e-10 1e-10 1e-10
          1e-10 1e-10 1e-10 1e-10 1e-10 1e-10 1e-10 1e-10 1e-10 1e-10 1e-10 1e-10
          1e-10 1e-10 1e-10 1e-10 1e-10 1e-10 1e-10 1e-10 1e-10 1e-10 1e-10 1e-10
          1e-10 1e-10 1e-10 1e-10 1e-10 1e-10 1e-10 1e-10 1e-10 1e-10 1e-10 1e-10
          1e-10 1e-10 1e-10 1e-10 1e-10 1e-10 1e-10 1e-10 1e-10 1e-10 1e-10 1e-10
          1e-10 1e-10 1e-10 1e-10 1e-10 1e-10 1e-10 1e-10 1e-10 1e-10 1e-10 1e-10
          1e-10 1e-10 1e-10 1e-10 1e-10 1e-10 1e-10 1e-10 1e-10 1e-10 1e-10 1e-10
          1e-10 1e-10 1e-10 1e-10 1e-10 1e-10 1e-10 1e-10 1e-10 1e-10 1e-10 1e-10
          1e-10 1e-10 1e-10 1e-10 1e-10 1e-10 1e-10 1e-10 1e-10 1e-10 1e-10 1e-10
          1e-10 1e-10 1e-10 1e-10 1e-10 1e-10 1e-10 1e-10 1e-10 1e-10 1e-10 1e-10
          1e-10 1e-10 1e-10 1e-10 1e-10 1e-10 1e-10 1e-10 1e-10 1e-10 1e-10 1e-10
          1e-10 1e-10 1e-10 1e-10 1e-10 1e-10 1e-10 1e-10 1e-10 1e-10 1e-10 1e-10
          1e-10 1e-10 1e-10 1e-10 1e-10 1e-10 1e-10 1e-10 1e-10 1e-10 1e-10 1e-10
          1e-10 1e-10 1e-10 1e-10 1e-10 1e-10 1e-10 1e-10 1e-10
        </DataArray>
        <DataArray type="Float32" Name="mobW" NumberOfComponents="1" format="ascii">
          0.500003 0.500003 0.500003 0.500003 0.500003 0.500003 0.500003 0.500002 0.500002 0.500001 0.500001 0.5
          0.499999 0.499997 0.499994 0.499991 0.499986 0.499979 0.49997 0.499958 0.49994 0.499916 0.499882 0.499835
          0.49977 0.49968 0.499556 0.499383 0.499144 0.498813 0.498355 0.49772 0.496841 0.495624 0.49394 0.491612
          0.488395 0.483955 0.477836 0.469422 0.457888 0.442144 0.420788 0.392078 0.353999 0.304516 0.242295 0.168363
          0.0896318 0.0248199 10.0001 10.0001 10.0001 10.0001 10.0001 10.0001 10.0001 10.0001 10.0001 10.0001
          10.0001 10.0001 10.0001 10.0001 10.0001 10.0001 10.0001 10.0001 10.0001 10.0001 10.0001 10.0001
          10.0001 10.0001 10.0001 10.0001 10.0001 10.0001 10.0001 10.0001 10.0001 10.0001 10.0001 10.0001
          10.0001 10.0001 10.0001 10.0001 10.0001 10.0001 10.0001 10.0001 10.0001 10.0001 10.0001 10.0001
          10.0001 10.0001 10.0001 10.0001 10.0001 10.0001 10.0001 10.0001 10.0001 10.0001 10.0001 10.0001
          10.0001 10.0001 10.0001 10.0001 10.0001 10.0001 10.0001 10.0001 10.0001 10.0001 10.0001 10.0001
          10.0001 10.0001 10.0001 10.0001 10.0001 10.0001 10.0001 10.0001 10.0001 10.0001 10.0001 10.0001
          10.0001 10.0001 10.0001 10.0001 10.0001 10.0001 10.0001 10.0001 10.0001 10.0001 10.0001 10.0001
          10.0001 10.0001 10.0001 10.0001 10.0001 10.0001 10.0001 10.0001 10.0001 10.0001 10.0001 10.0001
          10.0001 10.0001 10.0001 10.0001 10.0001 10.0001 10.0001 10.0001 10.0001 10.0001 10.0001 10.0001
          10.0001 10.0001 10.0001 10.0001 10.0001 10.0001 10.0001 10.0001 10.0001 10.0001 10.0001 10.0001
          10.0001 10.0001 10.0001 10.0001 10.0001 10.0001 10.0001 10.0001 10.0001 10.0001 10.0001 10.0001
          10.0001 10.0001 10.0001 10.0001 10.0001 10.0001 10.0001 10.0001 10.0001
        </DataArray>
        <DataArray type="Float32" Name="mobN" NumberOfComponents="1" format="ascii">
          1e+10 1e+10 1e+10 1e+10 1e+10 1e+10 1e+10 1e+10 1e+10 1e+10 1e+10 1e+10
          1e+10 1e+10 1e+10 1e+10 1e+10 1e+10 1e+10 1e+10 1e+10 1e+10 1e+10 1e+10
          1e+10 1e+10 1e+10 1e+10 1e+10 1e+10 1e+10 1e+10 1e+10 1e+10 1e+10 1e+10
          1e+10 1e+10 1e+10 1e+10 1e+10 1e+10 1e+10 1e+10 1e+10 1e+10 1e+10 1e+10
          1e+10 1e+10 1e+10 1e+10 1e+10 1e+10 1e+10 1e+10 1e+10 1e+10 1e+10 1e+10
          1e+10 1e+10 1e+10 1e+10 1e+10 1e+10 1e+10 1e+10 1e+10 1e+10 1e+10 1e+10
          1e+10 1e+10 1e+10 1e+10 1e+10 1e+10 1e+10 1e+10 1e+10 1e+10 1e+10 1e+10
          1e+10 1e+10 1e+10 1e+10 1e+10 1e+10 1e+10 1e+10 1e+10 1e+10 1e+10 1e+10
          1e+10 1e+10 1e+10 1e+10 1e+10 1e+10 1e+10 1e+10 1e+10 1e+10 1e+10 1e+10
          1e+10 1e+10 1e+10 1e+10 1e+10 1e+10 1e+10 1e+10 1e+10 1e+10 1e+10 1e+10
          1e+10 1e+10 1e+10 1e+10 1e+10 1e+10 1e+10 1e+10 1e+10 1e+10 1e+10 1e+10
          1e+10 1e+10 1e+10 1e+10 1e+10 1e+10 1e+10 1e+10 1e+10 1e+10 1e+10 1e+10
          1e+10 1e+10 1e+10 1e+10 1e+10 1e+10 1e+10 1e+10 1e+10 1e+10 1e+10 1e+10
          1e+10 1e+10 1e+10 1e+10 1e+10 1e+10 1e+10 1e+10 1e+10 1e+10 1e+10 1e+10
          1e+10 1e+10 1e+10 1e+10 1e+10 1e+10 1e+10 1e+10 1e+10 1e+10 1e+10 1e+10
          1e+10 1e+10 1e+10 1e+10 1e+10 1e+10 1e+10 1e+10 1e+10 1e+10 1e+10 1e+10
          1e+10 1e+10 1e+10 1e+10 1e+10 1e+10 1e+10 1e+10 1e+10
        </DataArray>
        <DataArray type="Float32" Name="porosity" NumberOfComponents="1" format="ascii">
          1 1 1 1 1 1 1 1 1 1 1 1
          1 1 1 1 1 1 1 1 1 1 1 1
          1 1 1 1 1 1 1 1 1 1 1 1
          1 1 1 1 1 1 1 1 1 1 1 1
          1 1 1 1 1 1 1 1 1 1 1 1
          1 1 1 1 1 1 1 1 1 1 1 1
          1 1 1 1 1 1 1 1 1 1 1 1
          1 1 1 1 1 1 1 1 1 1 1 1
          1 1 1 1 1 1 1 1 1 1 1 1
          1 1 1 1 1 1 1 1 1 1 1 1
          1 1 1 1 1 1 1 1 1 1 1 1
          1 1 1 1 1 1 1 1 1 1 1 1
          1 1 1 1 1 1 1 1 1 1 1 1
          1 1 1 1 1 1 1 1 1 1 1 1
          1 1 1 1 1 1 1 1 1 1 1 1
          1 1 1 1 1 1 1 1 1 1 1 1
          1 1 1 1 1 1 1 1 1
        </DataArray>
        <DataArray type="Float32" Name="temperature" NumberOfComponents="1" format="ascii">
          283.15 283.15 283.15 283.15 283.15 283.15 283.15 283.15 283.15 283.15 283.15 283.15
          283.15 283.15 283.15 283.15 283.15 283.15 283.15 283.15 283.15 283.15 283.15 283.15
          283.15 283.15 283.15 283.15 283.15 283.15 283.15 283.15 283.15 283.15 283.15 283.15
          283.15 283.15 283.15 283.15 283.15 283.15 283.15 283.15 283.15 283.15 283.15 283.15
          283.15 283.15 283.15 283.15 283.15 283.15 283.15 283.15 283.15 283.15 283.15 283.15
          283.15 283.15 283.15 283.15 283.15 283.15 283.15 283.15 283.15 283.15 283.15 283.15
          283.15 283.15 283.15 283.15 283.15 283.15 283.15 283.15 283.15 283.15 283.15 283.15
          283.15 283.15 283.15 283.15 283.15 283.15 283.15 283.15 283.15 283.15 283.15 283.15
          283.15 283.15 283.15 283.15 283.15 283.15 283.15 283.15 283.15 283.15 283.15 283.15
          283.15 283.15 283.15 283.15 283.15 283.15 283.15 283.15 283.15 283.15 283.15 283.15
          283.15 283.15 283.15 283.15 283.15 283.15 283.15 283.15 283.15 283.15 283.15 283.15
          283.15 283.15 283.15 283.15 283.15 283.15 283.15 283.15 283.15 283.15 283.15 283.15
          283.15 283.15 283.15 283.15 283.15 283.15 283.15 283.15 283.15 283.15 283.15 283.15
          283.15 283.15 283.15 283.15 283.15 283.15 283.15 283.15 283.15 283.15 283.15 283.15
          283.15 283.15 283.15 283.15 283.15 283.15 283.15 283.15 283.15 283.15 283.15 283.15
          283.15 283.15 283.15 283.15 283.15 283.15 283.15 283.15 283.15 283.15 283.15 283.15
          283.15 283.15 283.15 283.15 283.15 283.15 283.15 283.15 283.15
        </DataArray>
        <DataArray type="Float32" Name="pressure head" NumberOfComponents="1" format="ascii">
          -17.3089 -17.3089 -17.3089 -17.3089 -17.3089 -17.3089 -17.3089 -17.3089 -17.3089 -17.3089 -17.3089 -17.3089
          -17.3089 -17.3089 -17.3089 -17.3089 -17.309 -17.309 -17.309 -17.3091 -17.3092 -17.3093 -17.3095 -17.3097
          -17.3101 -17.3105 -17.3112 -17.3121 -17.3133 -17.3151 -17.3174 -17.3207 -17.3253 -17.3317 -17.3405 -17.3528
          -17.3699 -17.3936 -17.4268 -17.4732 -17.5383 -17.6303 -17.7612 -17.9494 -18.2247 -18.6371 -19.2791 -20.3427
          -22.3125 -26.8909 -46.0362 -46.0362 -46.0362 -46.0362 -46.0362 -46.0362 -46.0362 -46.0362 -46.0362 -46.0362
          -46.0362 -46.0362 -46.0362 -46.0362 -46.0362 -46.0362 -46.0362 -46.0362 -46.0362 -46.0362 -46.0362 -46.0362
          -46.0362 -46.0362 -46.0362 -46.0362 -46.0362 -46.0362 -46.0362 -46.0362 -46.0362 -46.0362 -46.0362 -46.0362
          -46.0362 -46.0362 -46.0362 -46.0362 -46.0362 -46.0362 -46.0362 -46.0362 -46.0362 -46.0362 -46.0362 -46.0362
          -46.0362 -46.0362 -46.0362 -46.0362 -46.0362 -46.0362 -46.0362 -46.0362 -46.0362 -46.0362 -46.0362 -46.0362
          -46.0362 -46.0362 -46.0362 -46.0362 -46.0362 -46.0362 -46.0362 -46.0362 -46.0362 -46.0362 -46.0362 -46.0362
          -46.0362 -46.0362 -46.0362 -46.0362 -46.0362 -46.0362 -46.0362 -46.0362 -46.0362 -46.0362 -46.0362 -46.0362
          -46.0362 -46.0362 -46.0362 -46.0362 -46.0362 -46.0362 -46.0362 -46.0362 -46.0362 -46.0362 -46.0362 -46.0362
          -46.0362 -46.0362 -46.0362 -46.0362 -46.0362 -46.0362 -46.0362 -46.0362 -46.0362 -46.0362 -46.0362 -46.0362
          -46.0362 -46.0362 -46.0362 -46.0362 -46.0362 -46.0362 -46.0362 -46.0362 -46.0362 -46.0362 -46.0362 -46.0362
          -46.0362 -46.0362 -46.0362 -46.0362 -46.0362 -46.0362 -46.0362 -46.0362 -46.0362 -46.0362 -46.0362 -46.0362
          -46.0362 -46.0362 -46.0362 -46.0362 -46.0362 -46.0362 -46.0362 -46.0362 -46.0362 -46.0362 -46.0362 -46.0362
          -46.0362 -46.0362 -46.0362 -46.0362 -46.0362 -46.0362 -46.0362 -46.0362 -46.0362
        </DataArray>
        <DataArray type="Float32" Name="water content" NumberOfComponents="1" format="ascii">
          0.100037 0.100037 0.100037 0.100037 0.100037 0.100037 0.100037 0.100037 0.100037 0.100037 0.100037 0.100037
          0.100037 0.100037 0.100037 0.100036 0.100036 0.100036 0.100036 0.100035 0.100035 0.100034 0.100033 0.100032
          0.10003 0.100027 0.100023 0.100017 0.10001 0.0999996 0.0999853 0.0999654 0.0999379 0.0998997 0.0998468 0.0997734
          0.0996716 0.0995302 0.0993339 0.0990609 0.098681 0.0981511 0.0974101 0.09637 0.0949024 0.0928148 0.0898099 0.0854059
          0.0787723 0.0684255 0.295245 0.295245 0.295245 0.295245 0.295245 0.295245 0.295245 0.295245 0.295245 0.295245
          0.295245 0.295245 0.295245 0.295245 0.295245 0.295245 0.295245 0.295245 0.295245 0.295245 0.295245 0.295245
          0.295245 0.295245 0.295245 0.295245 0.295245 0.295245 0.295245 0.295245 0.295245 0.295245 0.295245 0.295245
          0.295245 0.295245 0.295245 0.295245 0.295245 0.295245 0.295245 0.295245 0.295245 0.295245 0.295245 0.295245
          0.295245 0.295245 0.295245 0.295245 0.295245 0.295245 0.295245 0.295245 0.295245 0.295245 0.295245 0.295245
          0.295245 0.295245 0.295245 0.295245 0.295245 0.295245 0.295245 0.295245 0.295245 0.295245 0.295245 0.295245
          0.295245 0.295245 0.295245 0.295245 0.295245 0.295245 0.295245 0.295245 0.295245 0.295245 0.295245 0.295245
          0.295245 0.295245 0.295245 0.295245 0.295245 0.295245 0.295245 0.295245 0.295245 0.295245 0.295245 0.295245
          0.295245 0.295245 0.295245 0.295245 0.295245 0.295245 0.295245 0.295245 0.295245 0.295245 0.295245 0.295245
          0.295245 0.295245 0.295245 0.295245 0.295245 0.295245 0.295245 0.295245 0.295245 0.295245 0.295245 0.295245
          0.295245 0.295245 0.295245 0.295245 0.295245 0.295245 0.295245 0.295245 0.295245 0.295245 0.295245 0.295245
          0.295245 0.295245 0.295245 0.295245 0.295245 0.295245 0.295245 0.295245 0.295245 0.295245 0.295245 0.295245
          0.295245 0.295245 0.295245 0.295245 0.295245 0.295245 0.295245 0.295245 0.295245
        </DataArray>
      </PointData>
      <CellData Scalars="process rank">
        <DataArray type="Float32" Name="process rank" NumberOfComponents="1" format="ascii">
          0 0 0 0 0 0 0 0 0 0 0 0
          0 0 0 0 0 0 0 0 0 0 0 0
          0 0 0 0 0 0 0 0 0 0 0 0
          0 0 0 0 0 0 0 0 0 0 0 0
          0 0 0 0 0 0 0 0 0 0 0 0
          0 0 0 0 0 0 0 0 0 0 0 0
          0 0 0 0 0 0 0 0 0 0 0 0
          0 0 0 0 0 0 0 0 0 0 0 0
          0 0 0 0 0 0 0 0 0 0 0 0
          0 0 0 0 0 0 0 0 0 0 0 0
          0 0 0 0 0 0 0 0 0 0 0 0
          0 0 0 0 0 0 0 0 0 0 0 0
          0 0 0 0 0 0 0 0 0 0 0 0
          0 0 0 0 0 0 0 0 0 0 0 0
          0 0 0 0 0 0 0 0 0 0 0 0
          0 0 0 0 0 0 0 0 0 0 0 0
          0 0 0 0 0 0 0 0
        </DataArray>
      </CellData>
      <Points>
        <DataArray type="Float32" Name="Coordinates" NumberOfComponents="3" format="ascii">
          0 0 0 -0.01 0 0 -0.02 0 0 -0.03 0 0
          -0.04 0 0 -0.05 0 0 -0.06 0 0 -0.07 0 0
          -0.08 0 0 -0.09 0 0 -0.1 0 0 -0.11 0 0
          -0.12 0 0 -0.13 0 0 -0.14 0 0 -0.15 0 0
          -0.16 0 0 -0.17 0 0 -0.18 0 0 -0.19 0 0
          -0.2 0 0 -0.21 0 0 -0.22 0 0 -0.23 0 0
          -0.24 0 0 -0.25 0 0 -0.26 0 0 -0.27 0 0
          -0.28 0 0 -0.29 0 0 -0.3 0 0 -0.31 0 0
          -0.32 0 0 -0.33 0 0 -0.34 0 0 -0.35 0 0
          -0.36 0 0 -0.37 0 0 -0.38 0 0 -0.39 0 0
          -0.4 0 0 -0.41 0 0 -0.42 0 0 -0.43 0 0
          -0.44 0 0 -0.45 0 0 -0.46 0 0 -0.47 0 0
          -0.48 0 0 -0.49 0 0 -0.5 0 0 -0.51 0 0
          -0.52 0 0 -0.53 0 0 -0.54 0 0 -0.55 0 0
          -0.56 0 0 -0.57 0 0 -0.58 0 0 -0.59 0 0
          -0.6 0 0 -0.61 0 0 -0.62 0 0 -0.63 0 0
          -0.64 0 0 -0.65 0 0 -0.66 0 0 -0.67 0 0
          -0.68 0 0 -0.69 0 0 -0.7 0 0 -0.71 0 0
          -0.72 0 0 -0.73 0 0 -0.74 0 0 -0.75 0 0
          -0.76 0 0 -0.77 0 0 -0.78 0 0 -0.79 0 0
          -0.8 0 0 -0.81 0 0 -0.82 0 0 -0.83 0 0
          -0.84 0 0 -0.85 0 0 -0.86 0 0 -0.87 0 0
          -0.88 0 0 -0.89 0 0 -0.9 0 0 -0.91 0 0
          -0.92 0 0 -0.93 0 0 -0.94 0 0 -0.95 0 0
          -0.96 0 0 -0.97 0 0 -0.98 0 0 -0.99 0 0
          -1 0 0 -1.01 0 0 -1.02 0 0 -1.03 0 0
          -1.04 0 0 -1.05 0 0 -1.06 0 0 -1.07 0 0
          -1.08 0 0 -1.09 0 0 -1.1 0 0 -1.11 0 0
          -1.12 0 0 -1.13 0 0 -1.14 0 0 -1.15 0 0
          -1.16 0 0 -1.17 0 0 -1.18 0 0 -1.19 0 0
          -1.2 0 0 -1.21 0 0 -1.22 0 0 -1.23 0 0
          -1.24 0 0 -1.25 0 0 -1.26 0 0 -1.27 0 0
          -1.28 0 0 -1.29 0 0 -1.3 0 0 -1.31 0 0
          -1.32 0 0 -1.33 0 0 -1.34 0 0 -1.35 0 0
          -1.36 0 0 -1.37 0 0 -1.38 0 0 -1.39 0 0
          -1.4 0 0 -1.41 0 0 -1.42 0 0 -1.43 0 0
          -1.44 0 0 -1.45 0 0 -1.46 0 0 -1.47 0 0
          -1.48 0 0 -1.49 0 0 -1.5 0 0 -1.51 0 0
          -1.52 0 0 -1.53 0 0 -1.54 0 0 -1.55 0 0
          -1.56 0 0 -1.57 0 0 -1.58 0 0 -1.59 0 0
          -1.6 0 0 -1.61 0 0 -1.62 0 0 -1.63 0 0
          -1.64 0 0 -1.65 0 0 -1.66 0 0 -1.67 0 0
          -1.68 0 0 -1.69 0 0 -1.7 0 0 -1.71 0 0
          -1.72 0 0 -1.73 0 0 -1.74 0 0 -1.75 0 0
          -1.76 0 0 -1.77 0 0 -1.78 0 0 -1.79 0 0
          -1.8 0 0 -1.81 0 0 -1.82 0 0 -1.83 0 0
          -1.84 0 0 -1.85 0 0 -1.86 0 0 -1.87 0 0
          -1.88 0 0 -1.89 0 0 -1.9 0 0 -1.91 0 0
          -1.92 0 0 -1.93 0 0 -1.94 0 0 -1.95 0 0
          -1.96 0 0 -1.97 0 0 -1.98 0 0 -1.99 0 0
          -2 0 0
        </DataArray>
      </Points>
      <Lines>
        <DataArray type="Int32" Name="connectivity" NumberOfComponents="1" format="ascii">
          0 1 1 2 2 3 3 4 4 5 5 6
          6 7 7 8 8 9 9 10 10 11 11 12
          12 13 13 14 14 15 15 16 16 17 17 18
          18 19 19 20 20 21 21 22 22 23 23 24
          24 25 25 26 26 27 27 28 28 29 29 30
          30 31 31 32 32 33 33 34 34 35 35 36
          36 37 37 38 38 39 39 40 40 41 41 42
          42 43 43 44 44 45 45 46 46 47 47 48
          48 49 49 50 50 51 51 52 52 53 53 54
          54 55 55 56 56 57 57 58 58 59 59 60
          60 61 61 62 62 63 63 64 64 65 65 66
          66 67 67 68 68 69 69 70 70 71 71 72
          72 73 73 74 74 75 75 76 76 77 77 78
          78 79 79 80 80 81 81 82 82 83 83 84
          84 85 85 86 86 87 87 88 88 89 89 90
          90 91 91 92 92 93 93 94 94 95 95 96
          96 97 97 98 98 99 99 100 100 101 101 102
          102 103 103 104 104 105 105 106 106 107 107 108
          108 109 109 110 110 111 111 112 112 113 113 114
          114 115 115 116 116 117 117 118 118 119 119 120
          120 121 121 122 122 123 123 124 124 125 125 126
          126 127 127 128 128 129 129 130 130 131 131 132
          132 133 133 134 134 135 135 136 136 137 137 138
          138 139 139 140 140 141 141 142 142 143 143 144
          144 145 145 146 146 147 147 148 148 149 149 150
          150 151 151 152 152 153 153 154 154 155 155 156
          156 157 157 158 158 159 159 160 160 161 161 162
          162 163 163 164 164 165 165 166 166 167 167 168
          168 169 169 170 170 171 171 172 172 173 173 174
          174 175 175 176 176 177 177 178 178 179 179 180
          180 181 181 182 182 183 183 184 184 185 185 186
          186 187 187 188 188 189 189 190 190 191 191 192
          192 193 193 194 194 195 195 196 196 197 197 198
          198 199 199 200
        </DataArray>
        <DataArray type="Int32" Name="offsets" NumberOfComponents="1" format="ascii">
          2 4 6 8 10 12 14 16 18 20 22 24
          26 28 30 32 34 36 38 40 42 44 46 48
          50 52 54 56 58 60 62 64 66 68 70 72
          74 76 78 80 82 84 86 88 90 92 94 96
          98 100 102 104 106 108 110 112 114 116 118 120
          122 124 126 128 130 132 134 136 138 140 142 144
          146 148 150 152 154 156 158 160 162 164 166 168
          170 172 174 176 178 180 182 184 186 188 190 192
          194 196 198 200 202 204 206 208 210 212 214 216
          218 220 222 224 226 228 230 232 234 236 238 240
          242 244 246 248 250 252 254 256 258 260 262 264
          266 268 270 272 274 276 278 280 282 284 286 288
          290 292 294 296 298 300 302 304 306 308 310 312
          314 316 318 320 322 324 326 328 330 332 334 336
          338 340 342 344 346 348 350 352 354 356 358 360
          362 364 366 368 370 372 374 376 378 380 382 384
          386 388 390 392 394 396 398 400
        </DataArray>
      </Lines>
    </Piece>
  </PolyData>
</VTKFile>
