<?xml version="1.0"?>
<VTKFile type="UnstructuredGrid" version="0.1" byte_order="LittleEndian">
  <UnstructuredGrid>
    <Piece NumberOfCells="45" NumberOfPoints="96">
      <CellData Scalars="p (Pa)">
        <DataArray type="Float32" Name="p (Pa)" NumberOfComponents="1" format="ascii">
          90182 82305.6 89690.1 90378.6 82745.4 82360.1 91252.1 90384.6 90262 78904 -1.35647e+06 76971.5
          81769.4 -1.36166e+06 -1.35589e+06 90050.9 81778.5 80581 -1.35866e+06 -1.36892e+06 -1.36557e+06 78235.1 -1.3666e+06 -1.365e+06
          89626.9 80195.2 78206.1 -1.25036e+06 -1.36967e+06 -1.36868e+06 78408.1 -1.36644e+06 -1.36203e+06 89495.1 80029.1 79419.3
          76488.6 -1.36852e+06 75477.1 79840.7 -1.36615e+06 77757.1 89371 80672.5 88998.4
        </DataArray>
        <DataArray type="Float32" Name="saturation" NumberOfComponents="1" format="ascii">
          0.108623 0.105874 0.108253 0.108787 0.105937 0.105882 0.109654 0.108792 0.108689 0.105512 0.100932 0.105373
          0.105803 0.100918 0.100933 0.108519 0.105805 0.105667 0.100926 0.100898 0.100907 0.10546 0.100904 0.100908
          0.10821 0.105627 0.105457 0.101222 0.100896 0.100898 0.105473 0.100905 0.100917 0.108121 0.105611 0.105555
          0.105344 0.100899 0.105288 0.105593 0.100905 0.105425 0.10804 0.105676 0.107815
        </DataArray>
        <DataArray type="Float32" Name="process rank" NumberOfComponents="1" format="ascii">
          0 0 0 0 0 0 0 0 0 0 0 0
          0 0 0 0 0 0 0 0 0 0 0 0
          0 0 0 0 0 0 0 0 0 0 0 0
          0 0 0 0 0 0 0 0 0
        </DataArray>
      </CellData>
      <Points>
        <DataArray type="Float32" Name="Coordinates" NumberOfComponents="3" format="ascii">
          -0.04 -0.04 -0.15 -0.0133333 -0.04 -0.15 -0.04 -0.0133333 -0.15 -0.0133333 -0.0133333 -0.15
          -0.04 -0.04 -0.12 -0.0133333 -0.04 -0.12 -0.04 -0.0133333 -0.12 -0.0133333 -0.0133333 -0.12
          0.0133333 -0.04 -0.15 0.0133333 -0.0133333 -0.15 0.0133333 -0.04 -0.12 0.0133333 -0.0133333 -0.12
          0.04 -0.04 -0.15 0.04 -0.0133333 -0.15 0.04 -0.04 -0.12 0.04 -0.0133333 -0.12
          -0.04 0.0133333 -0.15 -0.0133333 0.0133333 -0.15 -0.04 0.0133333 -0.12 -0.0133333 0.0133333 -0.12
          0.0133333 0.0133333 -0.15 0.0133333 0.0133333 -0.12 0.04 0.0133333 -0.15 0.04 0.0133333 -0.12
          -0.04 0.04 -0.15 -0.0133333 0.04 -0.15 -0.04 0.04 -0.12 -0.0133333 0.04 -0.12
          0.0133333 0.04 -0.15 0.0133333 0.04 -0.12 0.04 0.04 -0.15 0.04 0.04 -0.12
          -0.04 -0.04 -0.09 -0.0133333 -0.04 -0.09 -0.04 -0.0133333 -0.09 -0.0133333 -0.0133333 -0.09
          0.0133333 -0.04 -0.09 0.0133333 -0.0133333 -0.09 0.04 -0.04 -0.09 0.04 -0.0133333 -0.09
          -0.04 0.0133333 -0.09 -0.0133333 0.0133333 -0.09 0.0133333 0.0133333 -0.09 0.04 0.0133333 -0.09
          -0.04 0.04 -0.09 -0.0133333 0.04 -0.09 0.0133333 0.04 -0.09 0.04 0.04 -0.09
          -0.04 -0.04 -0.06 -0.0133333 -0.04 -0.06 -0.04 -0.0133333 -0.06 -0.0133333 -0.0133333 -0.06
          0.0133333 -0.04 -0.06 0.0133333 -0.0133333 -0.06 0.04 -0.04 -0.06 0.04 -0.0133333 -0.06
          -0.04 0.0133333 -0.06 -0.0133333 0.0133333 -0.06 0.0133333 0.0133333 -0.06 0.04 0.0133333 -0.06
          -0.04 0.04 -0.06 -0.0133333 0.04 -0.06 0.0133333 0.04 -0.06 0.04 0.04 -0.06
          -0.04 -0.04 -0.03 -0.0133333 -0.04 -0.03 -0.04 -0.0133333 -0.03 -0.0133333 -0.0133333 -0.03
          0.0133333 -0.04 -0.03 0.0133333 -0.0133333 -0.03 0.04 -0.04 -0.03 0.04 -0.0133333 -0.03
          -0.04 0.0133333 -0.03 -0.0133333 0.0133333 -0.03 0.0133333 0.0133333 -0.03 0.04 0.0133333 -0.03
          -0.04 0.04 -0.03 -0.0133333 0.04 -0.03 0.0133333 0.04 -0.03 0.04 0.04 -0.03
          -0.04 -0.04 0 -0.0133333 -0.04 0 -0.04 -0.0133333 0 -0.0133333 -0.0133333 0
          0.0133333 -0.04 0 0.0133333 -0.0133333 0 0.04 -0.04 0 0.04 -0.0133333 0
          -0.04 0.0133333 0 -0.0133333 0.0133333 0 0.0133333 0.0133333 0 0.04 0.0133333 0
          -0.04 0.04 0 -0.0133333 0.04 0 0.0133333 0.04 0 0.04 0.04 0
        </DataArray>
      </Points>
      <Cells>
        <DataArray type="Int32" Name="connectivity" NumberOfComponents="1" format="ascii">
          0 1 3 2 4 5 7 6 1 8 9 3
          5 10 11 7 8 12 13 9 10 14 15 11
          2 3 17 16 6 7 19 18 3 9 20 17
          7 11 21 19 9 13 22 20 11 15 23 21
          16 17 25 24 18 19 27 26 17 20 28 25
          19 21 29 27 20 22 30 28 21 23 31 29
          4 5 7 6 32 33 35 34 5 10 11 7
          33 36 37 35 10 14 15 11 36 38 39 37
          6 7 19 18 34 35 41 40 7 11 21 19
          35 37 42 41 11 15 23 21 37 39 43 42
          18 19 27 26 40 41 45 44 19 21 29 27
          41 42 46 45 21 23 31 29 42 43 47 46
          32 33 35 34 48 49 51 50 33 36 37 35
          49 52 53 51 36 38 39 37 52 54 55 53
          34 35 41 40 50 51 57 56 35 37 42 41
          51 53 58 57 37 39 43 42 53 55 59 58
          40 41 45 44 56 57 61 60 41 42 46 45
          57 58 62 61 42 43 47 46 58 59 63 62
          48 49 51 50 64 65 67 66 49 52 53 51
          65 68 69 67 52 54 55 53 68 70 71 69
          50 51 57 56 66 67 73 72 51 53 58 57
          67 69 74 73 53 55 59 58 69 71 75 74
          56 57 61 60 72 73 77 76 57 58 62 61
          73 74 78 77 58 59 63 62 74 75 79 78
          64 65 67 66 80 81 83 82 65 68 69 67
          81 84 85 83 68 70 71 69 84 86 87 85
          66 67 73 72 82 83 89 88 67 69 74 73
          83 85 90 89 69 71 75 74 85 87 91 90
          72 73 77 76 88 89 93 92 73 74 78 77
          89 90 94 93 74 75 79 78 90 91 95 94
        </DataArray>
        <DataArray type="Int32" Name="offsets" NumberOfComponents="1" format="ascii">
          8 16 24 32 40 48 56 64 72 80 88 96
          104 112 120 128 136 144 152 160 168 176 184 192
          200 208 216 224 232 240 248 256 264 272 280 288
          296 304 312 320 328 336 344 352 360
        </DataArray>
        <DataArray type="UInt8" Name="types" NumberOfComponents="1" format="ascii">
          12 12 12 12 12 12 12 12 12 12 12 12
          12 12 12 12 12 12 12 12 12 12 12 12
          12 12 12 12 12 12 12 12 12 12 12 12
          12 12 12 12 12 12 12 12 12
        </DataArray>
      </Cells>
    </Piece>
  </UnstructuredGrid>
</VTKFile>
