<?xml version="1.0"?>
<VTKFile type="UnstructuredGrid" version="0.1" byte_order="LittleEndian">
  <UnstructuredGrid>
    <Piece NumberOfCells="960" NumberOfPoints="1296">
      <CellData Scalars="p (Pa)">
        <DataArray type="Float32" Name="p (Pa)" NumberOfComponents="1" format="ascii">
          95682.8 95657.3 95611.3 95556.8 95511.8 95488.5 95486 95490.1 95684.8 95657.8 95608.5 95549.3
          95501.1 95478.2 95479.9 95487.2 95692.6 95664.8 95613.1 95549.6 95498.3 95474.9 95481.7 95492.6
          95709.7 95684 95637.2 95580.7 95533.1 95507.1 95511 95520.4 95733.6 95711.7 95672.6 95626.8
          95589 95567 95564.8 95569.3 95759.2 95741.2 95709.7 95673.9 95645.3 95628.1 95623 95623.8
          95780.6 95765.9 95740.4 95712 95689.2 95675 95669.1 95668 95792.9 95779.8 95757.6 95733
          95712.9 95700 95694 95692.1 95546.8 95513.1 95451.1 95376.7 95319.2 95297.2 95307.3 95321.1
          95546.1 95508.6 95437.1 95346.8 95279.8 95259.6 95285 95308.3 95551.5 95510.6 95428.8 95315.4
          95233.7 95211.4 95264.1 95301.2 95570 95533.2 95462.8 95372.5 95299 95254 95295.2 95329
          95597.4 95566.6 95510.1 95442.5 95392.8 95363.7 95374.9 95392.9 95627.5 95602.7 95558.5 95508.8
          95476.5 95459.3 95460 95466.9 95653.3 95633.7 95599.9 95563.5 95539.1 95526.5 95523.9 95525.8
          95668.3 95651.6 95623.3 95593.4 95572.2 95560.9 95557.3 95557.4 95363.3 95309.4 95205 95072.1
          94979 94964.2 95017.3 95060.1 95355.1 95289.1 95149.6 94941.8 94808.6 94806.1 94937.8 95017
          95352.9 95272.6 95077.8 94660.2 94412.6 94410.7 94811.4 94965.2 95374.8 95306.6 95161.5 94939.9
          94760.4 94496.4 94836.5 94985.6 95410.2 95354.3 95242.6 95093.8 95020 94948 95016.1 95092.8
          95450.8 95406.4 95321.3 95217.8 95191.8 95178.2 95196.7 95225.4 95487.7 95454.9 95396.3 95334.2
          95312.2 95307.2 95314.1 95325.1 95509.6 95483.3 95438.5 95393.7 95372.5 95367.3 95370.6 95376
          95125.2 95032.7 94837.6 94553.1 94370.5 94384.2 94568.6 94681.9 95100.1 94971.1 94644.2 93932
          93542.6 93644.1 94311.8 94563.8 95077.5 94890 94198.8 90226.5 88511.2 88879 93639.7 94366.8
          95106.9 94964.7 94602.7 93804.1 93209.8 88959.1 93538.4 94326.8 95155.2 95037 94751.6 94176.1
          94229.8 93823.6 94121.1 94540.5 95215.1 95120.2 94898.6 94480.6 94659.7 94679.3 94736.9 94847.1
          95274.9 95211 95084.8 94932.7 94955.2 94982.5 95010.9 95047 95310.8 95264 95180.8 95097.8
          95087.8 95102.8 95122 95139.9 94835.3 94683.5 94324.7 93632 93192.5 93310.3 93918 94176.3
          94779.6 94531.8 93680.9 89182 87068.1 87868.3 93096.1 93900.9 94710.9 94209.8 89810.2 -558165
          -1.26795e+06 -1.05408e+06 87817.8 93218.3 94753.9 94452.9 93443.8 88504.8 85064.4 -1.21178e+06 85762.5 92713.9
          94815.8 94539.1 93541.1 88095.4 92217 87852.4 88569.4 93234.9 94907.5 94679.4 93865.4 89387.3
          93402.2 93665.1 93671.1 94222.5 95012.1 94880.9 94562.6 93950.2 94352.7 94508.4 94565.1 94676.1
          95074.6 94989.2 94821.2 94629.9 94684.9 94758.9 94808.3 94852.7 94515.9 94308.6 93803 92735.7
          91994.5 92247.6 93207.8 93598.1 94428.5 94079.7 92839.5 86075.4 83536.8 84988.5 91959.2 93158.3
          94308.8 93547.1 87038.6 -1.26928e+06 -1.27411e+06 -1.28592e+06 83242.1 91736 94341 93803.9 91847.9 81127.5
          72057.9 67975.4 -1.27389e+06 85296.9 94399.7 93672.8 87547.1 -1.2639e+06 83905.5 84630.5 -984291 87226.6
          94542.4 93936 88691.6 -944541 87572.7 92356.5 88572 93165.7 94726.1 94474.7 93596.2 88873.6
          93256.8 93934.4 93900.1 94258 94828.2 94688.2 94367.8 93835.9 94172.3 94383.5 94473.6 94563.2
          94187.2 93937.7 93341.3 92110.1 91068 91279 92460.5 92974.8 94071.2 93654.3 92261 85121.7
          82253.2 89183.9 91369.8 92475.6 93908.1 92977.8 85900.6 -1.27466e+06 -1.27501e+06 75038 83306.4 90811.1
          93932.5 92985.4 85779.5 -1.27936e+06 -1.29185e+06 -1.27581e+06 -1.27284e+06 84084 94052.3 93069.3 85451.8 -1.27668e+06
          71268.7 83561 84547.5 91603.5 94272.7 93534.7 87296.7 -1.26411e+06 85462.8 92043.6 92615.5 93427
          94512.8 94219.9 93177.1 87586 92712.5 93685.2 93938.4 94137.6 94639.5 94478.2 94102.9 93457.6
          93869.6 94161.1 94310.6 94400.9 93857.3 93559.7 92890 91813.7 89759.2 83445 90837.5 92135
          93702.6 93186.1 91711.5 89586.6 80936.6 80992.5 90042.5 91643.7 93497.8 92298.2 84939.1 76668
          -1.27484e+06 -1.30913e+06 81629.1 90139.6 93661.5 92856.2 90218.4 77734.1 -1.27626e+06 -1.28986e+06 82580.5 90847.7
          93903.3 93084.5 86463.9 -1.27184e+06 -1.24573e+06 84102.8 91561.7 92749.2 94204 93813 92471.8 85332.7
          86652.6 92422.8 93367 93687.1 94436.7 94240.5 93772.1 92862 93143 93768.6 94034.2 94160.4
          94555.5 94431.3 94184.8 93897.3 93960.3 94152.4 94288 94360.5 93545.7 93136.1 92048.9 90405.7
          81641 -1.28433e+06 82677.1 90582.9 93299.5 92238.2 85508.2 81569.9 72145.6 73308.6 87757.4 89762.9
          92851.4 86691.5 -1.26911e+06 -1.27858e+06 -1.27559e+06 -1.27975e+06 80966.2 82984.4 93463.2 92368.3 85406.5 73081.4
          -1.27599e+06 81272 90387.9 91102.2 93905.5 93473.1 92082 85609.6 84221.4 91469.1 92740.5 93022.5
          94229.1 94015.6 93521.8 92541 92501.6 93340.8 93697.1 93832.4 94441.3 94322 94090.1 93810.2
          93807.3 94004.1 94148 94219.2 94545.4 94463.1 94317 94173.8 94164.8 94251.4 94335.4 94382.6
          93380.7 92985.8 92056.1 90095.5 80535.9 -1.28727e+06 78574.9 88789 93184.6 92459 90330 81882
          68431.2 -1.28276e+06 76683.2 80488.8 93009.7 91470.4 81715.6 -1.26651e+06 -1.2757e+06 76268.3 79470.5 -1.28193e+06
          93498.6 92856.9 90923.1 82312.4 81874.9 89879.9 90603.4 85274 93951 93662.9 92974.3 91624.2
          91676.5 92630.2 92940 92731.7 94269 94125.2 93834.5 93453.5 93463.9 93691.7 93838.6 93880.8
          94466.8 94386 94241.4 94093.7 94079 94156.6 94231.3 94269.4 94561.2 94504.5 94409.1 94320.9
          94303.1 94342.4 94390.6 94419.5 93325.6 92896.8 91769.5 90278.6 87801.3 75421.7 86341.1 88678.7
          93102.3 92000.3 85053 80564.3 74592.9 -1.28354e+06 70984.8 78275.8 92743.4 86546.8 -1.25546e+06 -1.29286e+06
          -1.27649e+06 -1.27654e+06 -1.27696e+06 -1.22456e+06 93460.5 92377.5 84515.3 -1.26999e+06 81842.6 84469 85284.2 85584.2
          93968.2 93642.5 92530.3 86769.3 91846.8 92471.2 92751.1 92829.6 94292.9 94159.2 93857.6 93312.4
          93610 93784.4 93897.5 93946 94485.6 94418.6 94296.6 94166.6 94177.1 94230.9 94283.9 94313.1
          94575.5 94530.9 94456.6 94388.1 94374.5 94398.7 94431.6 94452.3 93418.9 93097.8 92354.6 90920.8
          88766.9 79347.8 80846.3 89268.6 93317.2 92772.8 91067.9 83320.6 76248.1 -1.28171e+06 -1.28375e+06 81225
          93261.1 92077.4 83489.5 -1.28057e+06 -1.27513e+06 -1.28641e+06 79462.3 83956.9 93608.9 92826.9 86390.7 -1.22491e+06
          82194.5 84936.9 91092.9 91779.4 94017.8 93731.5 92721.2 87145.1 92008.6 92621.5 93236.3 93422.5
          94312.8 94193.1 93919.4 93414.3 93697.1 93856.6 93994.6 94059.7 94493.6 94435.2 94328.4 94214.3
          94226 94272.3 94323.2 94352.8 94578.6 94540.7 94477.7 94419.9 94408.4 94427.7 94455.9 94474.3
          93504.8 93242.8 92641.9 91507.4 89402.3 88500 89781.1 91172.4 93467.8 93111 92174.1 89788.3
          79231.4 75808.1 82320.2 90235.7 93502.1 93010.9 91273.2 81258.8 -1.27568e+06 -1.28006e+06 83827.9 91030.4
          93743 93355.1 92036.5 85137.1 84254.9 85369.9 91785.8 92774 94060.8 93860.5 93368.4 92367.4
          92433.1 92758.5 93421.5 93654.6 94318.2 94220.8 94026.6 93786.3 93800.8 93905.6 94048.5 94123.4
          94484.8 94434 94345.5 94259.6 94250.9 94287.7 94338.4 94369.6 94564.7 94531.1 94476.3 94427.1
          94414.6 94431.7 94458.8 94477 93515 93249.8 92579 90838.4 82821.3 89726.2 91366.2 92003.9
          93485.8 93118.5 91889.8 84036.5 -1.28381e+06 80456.2 90146.4 91797.2 93522.5 93041.9 91276.4 80766.3
          -1.27527e+06 -1.27351e+06 85204.8 91905.1 93735.5 93343.2 91998.7 84974 84265.3 85848.4 92101.1 93056.9
          94036.1 93833.8 93333.8 92323.3 92439.5 92854.3 93507 93740.6 94285.8 94188.6 93994.3 93755.7
          93786.2 93910.3 94058.7 94136.5 94448.9 94399.1 94312.6 94229.8 94226.8 94269.4 94323 94355.6
          94527.4 94495.1 94442.5 94396.2 94387 94406.5 94435 94453.8 93460.8 93181.8 92491.3 91001.1
          89575.5 91011.7 91903.5 92319.6 93412.3 92973.8 91456.6 83476.3 79052.7 89403.2 91573.5 92295.9
          93399.6 92520.5 85257.6 -1.28406e+06 -1.27536e+06 82303.1 91276.6 92539.9 93608.6 92846.5 86254.2 -1.27356e+06
          83033.2 91222.2 92758.4 93220.6 93947 93662.2 92634.3 86969.8 92123.5 93141.7 93576.3 93755.2
          94213.6 94097.3 93827.9 93332.3 93665.9 93883.5 94029.6 94102.7 94382.3 94328.3 94229.7 94126.9
          94154.5 94215 94272.3 94305.3 94462.3 94429.1 94374.5 94326.5 94323.6 94348.3 94378.8 94398.2
        </DataArray>
        <DataArray type="Float32" Name="saturation" NumberOfComponents="1" format="ascii">
          0.125151 0.124911 0.12449 0.124008 0.123623 0.123428 0.123407 0.123441 0.12517 0.124916 0.124465 0.123943
          0.123533 0.123343 0.123357 0.123417 0.125244 0.124981 0.124507 0.123946 0.12351 0.123316 0.123372 0.123463
          0.125407 0.125162 0.124726 0.124217 0.123804 0.123584 0.123616 0.123696 0.12564 0.125427 0.125055 0.124631
          0.124291 0.124097 0.124078 0.124117 0.125893 0.125714 0.125408 0.125067 0.1248 0.124642 0.124596 0.124603
          0.126109 0.12596 0.125706 0.12543 0.125211 0.125077 0.125021 0.125011 0.126233 0.1261 0.125877 0.125634
          0.125438 0.125314 0.125256 0.125239 0.123921 0.123634 0.123122 0.122534 0.122098 0.121936 0.12201 0.122112
          0.123916 0.123596 0.123009 0.122305 0.121809 0.121663 0.121846 0.122017 0.123962 0.123613 0.122943 0.12207
          0.12148 0.121323 0.121695 0.121965 0.124123 0.123804 0.123216 0.122501 0.121949 0.121623 0.121921 0.122171
          0.124365 0.124094 0.123608 0.123052 0.122658 0.122434 0.12252 0.122659 0.124637 0.124413 0.124023 0.123597
          0.123329 0.123188 0.123194 0.12325 0.124874 0.124694 0.124388 0.124066 0.123855 0.123748 0.123726 0.123742
          0.125014 0.124858 0.124599 0.12433 0.124142 0.124044 0.124012 0.124013 0.12243 0.122025 0.121279 0.120396
          0.119819 0.11973 0.120053 0.12032 0.122368 0.121877 0.120902 0.119597 0.118842 0.118828 0.119574 0.120051
          0.122351 0.121757 0.120432 0.118065 0.116905 0.116896 0.118857 0.119736 0.122519 0.122005 0.120982 0.119586
          0.118582 0.11728 0.118995 0.119859 0.122795 0.122362 0.121542 0.120535 0.120069 0.119634 0.120046 0.120529
          0.123119 0.122765 0.122113 0.121368 0.121188 0.121095 0.121222 0.121421 0.123422 0.123152 0.122686 0.122211
          0.122046 0.122009 0.122061 0.122142 0.123604 0.123385 0.12302 0.122666 0.122501 0.122461 0.122486 0.122529
          0.12074 0.120148 0.119001 0.117544 0.116722 0.116781 0.117618 0.118175 0.120576 0.119772 0.117985 0.115043
          0.113829 0.114124 0.116475 0.117595 0.120431 0.119297 0.116019 0.108659 0.107552 0.107747 0.114111 0.116707
          0.12062 0.119733 0.117782 0.114619 0.112952 0.107792 0.113817 0.116538 0.12094 0.120175 0.118536 0.115931
          0.116142 0.114682 0.115721 0.117485 0.121349 0.120708 0.119346 0.117208 0.118063 0.118162 0.118459 0.119054
          0.121773 0.12132 0.120478 0.119544 0.119677 0.119841 0.120014 0.120238 0.122036 0.121695 0.121113 0.120561
          0.120497 0.120594 0.120719 0.120838 0.118989 0.118183 0.116529 0.114088 0.11291 0.113203 0.114995 0.115932
          0.118685 0.117444 0.114234 0.107923 0.106941 0.107253 0.112681 0.114937 0.118323 0.116063 0.108339 0.103118
          0.101174 0.10176 0.107231 0.112973 0.118548 0.117083 0.113555 0.107549 0.106368 0.101328 0.10654 0.111861
          0.118881 0.117478 0.113825 0.107353 0.110971 0.107246 0.107582 0.113014 0.119397 0.118162 0.114819 0.108051
          0.113443 0.114187 0.114205 0.116113 0.120021 0.119244 0.117589 0.115106 0.116646 0.117335 0.117601 0.118146
          0.120412 0.119881 0.118911 0.117915 0.11819 0.118574 0.11884 0.119085 0.11737 0.116462 0.114615 0.111905
          0.110624 0.111021 0.112947 0.113989 0.116975 0.115567 0.112116 0.106626 0.106064 0.10635 0.110572 0.112828
          0.116463 0.113842 0.106931 0.101171 0.101157 0.101125 0.106015 0.110257 0.116597 0.114618 0.110412 0.105726
          0.105142 0.105025 0.101158 0.106423 0.116849 0.11421 0.10712 0.101185 0.106129 0.106272 0.101951 0.106998
          0.117493 0.115057 0.107645 0.10206 0.107131 0.111203 0.107583 0.112845 0.118402 0.117181 0.113983 0.107744
          0.113068 0.115051 0.114935 0.116255 0.11895 0.118207 0.116711 0.114722 0.115917 0.116779 0.117176 0.117592
          0.115974 0.115063 0.113283 0.110801 0.10945 0.109685 0.111385 0.112406 0.115536 0.114154 0.111043 0.106381
          0.105867 0.107924 0.109791 0.111412 0.114962 0.112413 0.106577 0.101156 0.101155 0.105266 0.106025 0.109186
          0.115045 0.11243 0.106545 0.101143 0.101109 0.101153 0.101161 0.106163 0.115467 0.112619 0.10646 0.10115
          0.105115 0.106068 0.106255 0.110081 0.116314 0.113807 0.107024 0.101185 0.106463 0.110698 0.111671 0.113509
          0.117356 0.116102 0.112873 0.107136 0.111859 0.114247 0.115065 0.115784 0.117962 0.117197 0.115653 0.113592
          0.114833 0.115873 0.11647 0.116854 0.114792 0.113878 0.112223 0.110364 0.108302 0.106048 0.109212 0.11084
          0.114301 0.112894 0.110224 0.108182 0.105705 0.105711 0.108513 0.110134 0.113703 0.111105 0.106339 0.105355
          0.101155 0.101061 0.105786 0.108589 0.114176 0.112151 0.108653 0.105424 0.101151 0.101114 0.105913 0.109222
          0.114946 0.112654 0.106741 0.101164 0.101235 0.106166 0.110028 0.111932 0.11604 0.114647 0.111405 0.106431
          0.106801 0.111318 0.11335 0.114253 0.117011 0.116184 0.114517 0.112163 0.112791 0.114506 0.115402 0.115871
          0.117555 0.116987 0.115965 0.114925 0.115141 0.11584 0.116377 0.11668 0.113838 0.112775 0.110706 0.108811
          0.105787 0.101129 0.105927 0.108968 0.113176 0.111005 0.106475 0.105779 0.105145 0.105189 0.107206 0.108305
          0.112141 0.106813 0.101171 0.101145 0.101153 0.101142 0.105708 0.105974 0.113608 0.111224 0.106449 0.10518
          0.101152 0.105743 0.108795 0.109487 0.114953 0.113635 0.110757 0.1065 0.106189 0.109912 0.111914 0.112513
          0.116139 0.115335 0.11377 0.111531 0.111459 0.113282 0.114284 0.114711 0.117031 0.116518 0.115606 0.114639
          0.114629 0.115294 0.115823 0.1161 0.117508 0.117129 0.116497 0.115922 0.115888 0.116228 0.116573 0.116775
          0.113386 0.112431 0.110717 0.108554 0.105662 0.101121 0.105485 0.107698 0.112891 0.111383 0.108746 0.105818
          0.105035 0.101134 0.105356 0.105657 0.112484 0.109913 0.105797 0.101178 0.101153 0.105331 0.10556 0.101136
          0.113705 0.112153 0.109298 0.105875 0.105817 0.10839 0.108987 0.106417 0.115108 0.11418 0.112405 0.110108
          0.110177 0.111699 0.11233 0.111897 0.116299 0.115737 0.114718 0.113581 0.113609 0.114267 0.114731 0.11487
          0.117146 0.116789 0.116188 0.115619 0.115565 0.115856 0.116148 0.116301 0.117583 0.117317 0.116889 0.116513
          0.116439 0.116603 0.116809 0.116935 0.113242 0.112237 0.110302 0.108703 0.107224 0.105285 0.106704 0.107639
          0.112696 0.110633 0.106365 0.105665 0.105244 0.101132 0.105106 0.105463 0.11192 0.106767 0.101208 0.101106
          0.101151 0.101151 0.10115 0.101293 0.1136 0.111239 0.106248 0.101169 0.105813 0.106239 0.106419 0.106494
          0.115168 0.114119 0.111512 0.106839 0.11041 0.111404 0.111936 0.112096 0.116397 0.115866 0.114793 0.113208
          0.114023 0.114556 0.114926 0.115091 0.117231 0.116931 0.116412 0.115895 0.115935 0.116146 0.11636 0.116481
          0.11765 0.11744 0.1171 0.116798 0.11674 0.116844 0.116988 0.117081 0.113487 0.112685 0.1112 0.109296
          0.107686 0.105549 0.105695 0.107976 0.113221 0.111979 0.10945 0.106028 0.10533 0.101137 0.101131 0.105738
          0.113079 0.11075 0.106056 0.10114 0.101155 0.101124 0.105559 0.106139 0.11402 0.11209 0.106719 0.101292
          0.105859 0.106339 0.109477 0.110316 0.115343 0.11439 0.111876 0.106968 0.110646 0.111682 0.113017 0.113497
          0.116479 0.115997 0.115 0.113475 0.114284 0.11479 0.115261 0.115494 0.117268 0.117004 0.116544 0.11608
          0.116127 0.116313 0.116523 0.116647 0.117665 0.117486 0.117195 0.116937 0.116886 0.116971 0.117097 0.11718
          0.113722 0.113033 0.111721 0.109959 0.10806 0.107547 0.108318 0.109564 0.11362 0.112716 0.110902 0.108323
          0.105539 0.105306 0.105876 0.108667 0.113715 0.112487 0.109678 0.105741 0.101153 0.101141 0.106115 0.10941
          0.114426 0.113319 0.110688 0.106385 0.106196 0.10644 0.110325 0.111982 0.115498 0.114803 0.113353 0.111222
          0.111337 0.11195 0.113494 0.114155 0.116502 0.116106 0.115375 0.114562 0.114608 0.114953 0.115453 0.11573
          0.117227 0.116999 0.116616 0.116261 0.116226 0.116376 0.116586 0.116718 0.117599 0.117441 0.117189 0.116968
          0.116914 0.116989 0.117109 0.117192 0.113751 0.113051 0.111602 0.109213 0.105949 0.108279 0.109787 0.110639
          0.11367 0.112733 0.110471 0.106154 0.101131 0.105654 0.108595 0.110341 0.113772 0.112557 0.109682 0.105686
          0.101154 0.101159 0.106401 0.110493 0.114402 0.113288 0.110631 0.106347 0.106198 0.106563 0.110787 0.112591
          0.115409 0.114715 0.113264 0.111147 0.111348 0.112147 0.113728 0.114418 0.116368 0.11598 0.115259 0.114465
          0.114562 0.114969 0.115491 0.11578 0.117065 0.116846 0.116478 0.116142 0.11613 0.116301 0.116522 0.116659
          0.117423 0.117274 0.117037 0.116833 0.116793 0.116878 0.117003 0.117087 0.113601 0.112884 0.11144 0.109379
          0.108175 0.10939 0.110491 0.111141 0.11347 0.112404 0.109896 0.106054 0.105524 0.108061 0.110043 0.111101
          0.113436 0.111494 0.106413 0.10113 0.101154 0.105874 0.109682 0.111529 0.114019 0.112131 0.106678 0.101159
          0.105981 0.10962 0.11195 0.112979 0.115094 0.114178 0.111707 0.106907 0.110822 0.112788 0.113925 0.114464
          0.116078 0.115632 0.114696 0.11326 0.114189 0.114879 0.115385 0.115653 0.116773 0.116544 0.116141 0.115743
          0.115848 0.116083 0.116313 0.116448 0.117125 0.116978 0.11674 0.116536 0.116524 0.116628 0.116758 0.116842
        </DataArray>
        <DataArray type="Float32" Name="process rank" NumberOfComponents="1" format="ascii">
          0 0 0 0 0 0 0 0 0 0 0 0
          0 0 0 0 0 0 0 0 0 0 0 0
          0 0 0 0 0 0 0 0 0 0 0 0
          0 0 0 0 0 0 0 0 0 0 0 0
          0 0 0 0 0 0 0 0 0 0 0 0
          0 0 0 0 0 0 0 0 0 0 0 0
          0 0 0 0 0 0 0 0 0 0 0 0
          0 0 0 0 0 0 0 0 0 0 0 0
          0 0 0 0 0 0 0 0 0 0 0 0
          0 0 0 0 0 0 0 0 0 0 0 0
          0 0 0 0 0 0 0 0 0 0 0 0
          0 0 0 0 0 0 0 0 0 0 0 0
          0 0 0 0 0 0 0 0 0 0 0 0
          0 0 0 0 0 0 0 0 0 0 0 0
          0 0 0 0 0 0 0 0 0 0 0 0
          0 0 0 0 0 0 0 0 0 0 0 0
          0 0 0 0 0 0 0 0 0 0 0 0
          0 0 0 0 0 0 0 0 0 0 0 0
          0 0 0 0 0 0 0 0 0 0 0 0
          0 0 0 0 0 0 0 0 0 0 0 0
          0 0 0 0 0 0 0 0 0 0 0 0
          0 0 0 0 0 0 0 0 0 0 0 0
          0 0 0 0 0 0 0 0 0 0 0 0
          0 0 0 0 0 0 0 0 0 0 0 0
          0 0 0 0 0 0 0 0 0 0 0 0
          0 0 0 0 0 0 0 0 0 0 0 0
          0 0 0 0 0 0 0 0 0 0 0 0
          0 0 0 0 0 0 0 0 0 0 0 0
          0 0 0 0 0 0 0 0 0 0 0 0
          0 0 0 0 0 0 0 0 0 0 0 0
          0 0 0 0 0 0 0 0 0 0 0 0
          0 0 0 0 0 0 0 0 0 0 0 0
          0 0 0 0 0 0 0 0 0 0 0 0
          0 0 0 0 0 0 0 0 0 0 0 0
          0 0 0 0 0 0 0 0 0 0 0 0
          0 0 0 0 0 0 0 0 0 0 0 0
          0 0 0 0 0 0 0 0 0 0 0 0
          0 0 0 0 0 0 0 0 0 0 0 0
          0 0 0 0 0 0 0 0 0 0 0 0
          0 0 0 0 0 0 0 0 0 0 0 0
          0 0 0 0 0 0 0 0 0 0 0 0
          0 0 0 0 0 0 0 0 0 0 0 0
          0 0 0 0 0 0 0 0 0 0 0 0
          0 0 0 0 0 0 0 0 0 0 0 0
          0 0 0 0 0 0 0 0 0 0 0 0
          0 0 0 0 0 0 0 0 0 0 0 0
          0 0 0 0 0 0 0 0 0 0 0 0
          0 0 0 0 0 0 0 0 0 0 0 0
          0 0 0 0 0 0 0 0 0 0 0 0
          0 0 0 0 0 0 0 0 0 0 0 0
          0 0 0 0 0 0 0 0 0 0 0 0
          0 0 0 0 0 0 0 0 0 0 0 0
          0 0 0 0 0 0 0 0 0 0 0 0
          0 0 0 0 0 0 0 0 0 0 0 0
          0 0 0 0 0 0 0 0 0 0 0 0
          0 0 0 0 0 0 0 0 0 0 0 0
          0 0 0 0 0 0 0 0 0 0 0 0
          0 0 0 0 0 0 0 0 0 0 0 0
          0 0 0 0 0 0 0 0 0 0 0 0
          0 0 0 0 0 0 0 0 0 0 0 0
          0 0 0 0 0 0 0 0 0 0 0 0
          0 0 0 0 0 0 0 0 0 0 0 0
          0 0 0 0 0 0 0 0 0 0 0 0
          0 0 0 0 0 0 0 0 0 0 0 0
          0 0 0 0 0 0 0 0 0 0 0 0
          0 0 0 0 0 0 0 0 0 0 0 0
          0 0 0 0 0 0 0 0 0 0 0 0
          0 0 0 0 0 0 0 0 0 0 0 0
          0 0 0 0 0 0 0 0 0 0 0 0
          0 0 0 0 0 0 0 0 0 0 0 0
          0 0 0 0 0 0 0 0 0 0 0 0
          0 0 0 0 0 0 0 0 0 0 0 0
          0 0 0 0 0 0 0 0 0 0 0 0
          0 0 0 0 0 0 0 0 0 0 0 0
          0 0 0 0 0 0 0 0 0 0 0 0
          0 0 0 0 0 0 0 0 0 0 0 0
          0 0 0 0 0 0 0 0 0 0 0 0
          0 0 0 0 0 0 0 0 0 0 0 0
          0 0 0 0 0 0 0 0 0 0 0 0
          0 0 0 0 0 0 0 0 0 0 0 0
        </DataArray>
      </CellData>
      <Points>
        <DataArray type="Float32" Name="Coordinates" NumberOfComponents="3" format="ascii">
          -0.04 -0.04 -0.15 -0.03 -0.04 -0.15 -0.04 -0.03 -0.15 -0.03 -0.03 -0.15
          -0.04 -0.04 -0.14 -0.03 -0.04 -0.14 -0.04 -0.03 -0.14 -0.03 -0.03 -0.14
          -0.02 -0.04 -0.15 -0.02 -0.03 -0.15 -0.02 -0.04 -0.14 -0.02 -0.03 -0.14
          -0.01 -0.04 -0.15 -0.01 -0.03 -0.15 -0.01 -0.04 -0.14 -0.01 -0.03 -0.14
          -1.73472e-18 -0.04 -0.15 -1.73472e-18 -0.03 -0.15 -1.73472e-18 -0.04 -0.14 -1.73472e-18 -0.03 -0.14
          0.01 -0.04 -0.15 0.01 -0.03 -0.15 0.01 -0.04 -0.14 0.01 -0.03 -0.14
          0.02 -0.04 -0.15 0.02 -0.03 -0.15 0.02 -0.04 -0.14 0.02 -0.03 -0.14
          0.03 -0.04 -0.15 0.03 -0.03 -0.15 0.03 -0.04 -0.14 0.03 -0.03 -0.14
          0.04 -0.04 -0.15 0.04 -0.03 -0.15 0.04 -0.04 -0.14 0.04 -0.03 -0.14
          -0.04 -0.02 -0.15 -0.03 -0.02 -0.15 -0.04 -0.02 -0.14 -0.03 -0.02 -0.14
          -0.02 -0.02 -0.15 -0.02 -0.02 -0.14 -0.01 -0.02 -0.15 -0.01 -0.02 -0.14
          -1.73472e-18 -0.02 -0.15 -1.73472e-18 -0.02 -0.14 0.01 -0.02 -0.15 0.01 -0.02 -0.14
          0.02 -0.02 -0.15 0.02 -0.02 -0.14 0.03 -0.02 -0.15 0.03 -0.02 -0.14
          0.04 -0.02 -0.15 0.04 -0.02 -0.14 -0.04 -0.01 -0.15 -0.03 -0.01 -0.15
          -0.04 -0.01 -0.14 -0.03 -0.01 -0.14 -0.02 -0.01 -0.15 -0.02 -0.01 -0.14
          -0.01 -0.01 -0.15 -0.01 -0.01 -0.14 -1.73472e-18 -0.01 -0.15 -1.73472e-18 -0.01 -0.14
          0.01 -0.01 -0.15 0.01 -0.01 -0.14 0.02 -0.01 -0.15 0.02 -0.01 -0.14
          0.03 -0.01 -0.15 0.03 -0.01 -0.14 0.04 -0.01 -0.15 0.04 -0.01 -0.14
          -0.04 -1.73472e-18 -0.15 -0.03 -1.73472e-18 -0.15 -0.04 -1.73472e-18 -0.14 -0.03 -1.73472e-18 -0.14
          -0.02 -1.73472e-18 -0.15 -0.02 -1.73472e-18 -0.14 -0.01 -1.73472e-18 -0.15 -0.01 -1.73472e-18 -0.14
          -1.73472e-18 -1.73472e-18 -0.15 -1.73472e-18 -1.73472e-18 -0.14 0.01 -1.73472e-18 -0.15 0.01 -1.73472e-18 -0.14
          0.02 -1.73472e-18 -0.15 0.02 -1.73472e-18 -0.14 0.03 -1.73472e-18 -0.15 0.03 -1.73472e-18 -0.14
          0.04 -1.73472e-18 -0.15 0.04 -1.73472e-18 -0.14 -0.04 0.01 -0.15 -0.03 0.01 -0.15
          -0.04 0.01 -0.14 -0.03 0.01 -0.14 -0.02 0.01 -0.15 -0.02 0.01 -0.14
          -0.01 0.01 -0.15 -0.01 0.01 -0.14 -1.73472e-18 0.01 -0.15 -1.73472e-18 0.01 -0.14
          0.01 0.01 -0.15 0.01 0.01 -0.14 0.02 0.01 -0.15 0.02 0.01 -0.14
          0.03 0.01 -0.15 0.03 0.01 -0.14 0.04 0.01 -0.15 0.04 0.01 -0.14
          -0.04 0.02 -0.15 -0.03 0.02 -0.15 -0.04 0.02 -0.14 -0.03 0.02 -0.14
          -0.02 0.02 -0.15 -0.02 0.02 -0.14 -0.01 0.02 -0.15 -0.01 0.02 -0.14
          -1.73472e-18 0.02 -0.15 -1.73472e-18 0.02 -0.14 0.01 0.02 -0.15 0.01 0.02 -0.14
          0.02 0.02 -0.15 0.02 0.02 -0.14 0.03 0.02 -0.15 0.03 0.02 -0.14
          0.04 0.02 -0.15 0.04 0.02 -0.14 -0.04 0.03 -0.15 -0.03 0.03 -0.15
          -0.04 0.03 -0.14 -0.03 0.03 -0.14 -0.02 0.03 -0.15 -0.02 0.03 -0.14
          -0.01 0.03 -0.15 -0.01 0.03 -0.14 -1.73472e-18 0.03 -0.15 -1.73472e-18 0.03 -0.14
          0.01 0.03 -0.15 0.01 0.03 -0.14 0.02 0.03 -0.15 0.02 0.03 -0.14
          0.03 0.03 -0.15 0.03 0.03 -0.14 0.04 0.03 -0.15 0.04 0.03 -0.14
          -0.04 0.04 -0.15 -0.03 0.04 -0.15 -0.04 0.04 -0.14 -0.03 0.04 -0.14
          -0.02 0.04 -0.15 -0.02 0.04 -0.14 -0.01 0.04 -0.15 -0.01 0.04 -0.14
          -1.73472e-18 0.04 -0.15 -1.73472e-18 0.04 -0.14 0.01 0.04 -0.15 0.01 0.04 -0.14
          0.02 0.04 -0.15 0.02 0.04 -0.14 0.03 0.04 -0.15 0.03 0.04 -0.14
          0.04 0.04 -0.15 0.04 0.04 -0.14 -0.04 -0.04 -0.13 -0.03 -0.04 -0.13
          -0.04 -0.03 -0.13 -0.03 -0.03 -0.13 -0.02 -0.04 -0.13 -0.02 -0.03 -0.13
          -0.01 -0.04 -0.13 -0.01 -0.03 -0.13 -1.73472e-18 -0.04 -0.13 -1.73472e-18 -0.03 -0.13
          0.01 -0.04 -0.13 0.01 -0.03 -0.13 0.02 -0.04 -0.13 0.02 -0.03 -0.13
          0.03 -0.04 -0.13 0.03 -0.03 -0.13 0.04 -0.04 -0.13 0.04 -0.03 -0.13
          -0.04 -0.02 -0.13 -0.03 -0.02 -0.13 -0.02 -0.02 -0.13 -0.01 -0.02 -0.13
          -1.73472e-18 -0.02 -0.13 0.01 -0.02 -0.13 0.02 -0.02 -0.13 0.03 -0.02 -0.13
          0.04 -0.02 -0.13 -0.04 -0.01 -0.13 -0.03 -0.01 -0.13 -0.02 -0.01 -0.13
          -0.01 -0.01 -0.13 -1.73472e-18 -0.01 -0.13 0.01 -0.01 -0.13 0.02 -0.01 -0.13
          0.03 -0.01 -0.13 0.04 -0.01 -0.13 -0.04 -1.73472e-18 -0.13 -0.03 -1.73472e-18 -0.13
          -0.02 -1.73472e-18 -0.13 -0.01 -1.73472e-18 -0.13 -1.73472e-18 -1.73472e-18 -0.13 0.01 -1.73472e-18 -0.13
          0.02 -1.73472e-18 -0.13 0.03 -1.73472e-18 -0.13 0.04 -1.73472e-18 -0.13 -0.04 0.01 -0.13
          -0.03 0.01 -0.13 -0.02 0.01 -0.13 -0.01 0.01 -0.13 -1.73472e-18 0.01 -0.13
          0.01 0.01 -0.13 0.02 0.01 -0.13 0.03 0.01 -0.13 0.04 0.01 -0.13
          -0.04 0.02 -0.13 -0.03 0.02 -0.13 -0.02 0.02 -0.13 -0.01 0.02 -0.13
          -1.73472e-18 0.02 -0.13 0.01 0.02 -0.13 0.02 0.02 -0.13 0.03 0.02 -0.13
          0.04 0.02 -0.13 -0.04 0.03 -0.13 -0.03 0.03 -0.13 -0.02 0.03 -0.13
          -0.01 0.03 -0.13 -1.73472e-18 0.03 -0.13 0.01 0.03 -0.13 0.02 0.03 -0.13
          0.03 0.03 -0.13 0.04 0.03 -0.13 -0.04 0.04 -0.13 -0.03 0.04 -0.13
          -0.02 0.04 -0.13 -0.01 0.04 -0.13 -1.73472e-18 0.04 -0.13 0.01 0.04 -0.13
          0.02 0.04 -0.13 0.03 0.04 -0.13 0.04 0.04 -0.13 -0.04 -0.04 -0.12
          -0.03 -0.04 -0.12 -0.04 -0.03 -0.12 -0.03 -0.03 -0.12 -0.02 -0.04 -0.12
          -0.02 -0.03 -0.12 -0.01 -0.04 -0.12 -0.01 -0.03 -0.12 -1.73472e-18 -0.04 -0.12
          -1.73472e-18 -0.03 -0.12 0.01 -0.04 -0.12 0.01 -0.03 -0.12 0.02 -0.04 -0.12
          0.02 -0.03 -0.12 0.03 -0.04 -0.12 0.03 -0.03 -0.12 0.04 -0.04 -0.12
          0.04 -0.03 -0.12 -0.04 -0.02 -0.12 -0.03 -0.02 -0.12 -0.02 -0.02 -0.12
          -0.01 -0.02 -0.12 -1.73472e-18 -0.02 -0.12 0.01 -0.02 -0.12 0.02 -0.02 -0.12
          0.03 -0.02 -0.12 0.04 -0.02 -0.12 -0.04 -0.01 -0.12 -0.03 -0.01 -0.12
          -0.02 -0.01 -0.12 -0.01 -0.01 -0.12 -1.73472e-18 -0.01 -0.12 0.01 -0.01 -0.12
          0.02 -0.01 -0.12 0.03 -0.01 -0.12 0.04 -0.01 -0.12 -0.04 -1.73472e-18 -0.12
          -0.03 -1.73472e-18 -0.12 -0.02 -1.73472e-18 -0.12 -0.01 -1.73472e-18 -0.12 -1.73472e-18 -1.73472e-18 -0.12
          0.01 -1.73472e-18 -0.12 0.02 -1.73472e-18 -0.12 0.03 -1.73472e-18 -0.12 0.04 -1.73472e-18 -0.12
          -0.04 0.01 -0.12 -0.03 0.01 -0.12 -0.02 0.01 -0.12 -0.01 0.01 -0.12
          -1.73472e-18 0.01 -0.12 0.01 0.01 -0.12 0.02 0.01 -0.12 0.03 0.01 -0.12
          0.04 0.01 -0.12 -0.04 0.02 -0.12 -0.03 0.02 -0.12 -0.02 0.02 -0.12
          -0.01 0.02 -0.12 -1.73472e-18 0.02 -0.12 0.01 0.02 -0.12 0.02 0.02 -0.12
          0.03 0.02 -0.12 0.04 0.02 -0.12 -0.04 0.03 -0.12 -0.03 0.03 -0.12
          -0.02 0.03 -0.12 -0.01 0.03 -0.12 -1.73472e-18 0.03 -0.12 0.01 0.03 -0.12
          0.02 0.03 -0.12 0.03 0.03 -0.12 0.04 0.03 -0.12 -0.04 0.04 -0.12
          -0.03 0.04 -0.12 -0.02 0.04 -0.12 -0.01 0.04 -0.12 -1.73472e-18 0.04 -0.12
          0.01 0.04 -0.12 0.02 0.04 -0.12 0.03 0.04 -0.12 0.04 0.04 -0.12
          -0.04 -0.04 -0.11 -0.03 -0.04 -0.11 -0.04 -0.03 -0.11 -0.03 -0.03 -0.11
          -0.02 -0.04 -0.11 -0.02 -0.03 -0.11 -0.01 -0.04 -0.11 -0.01 -0.03 -0.11
          -1.73472e-18 -0.04 -0.11 -1.73472e-18 -0.03 -0.11 0.01 -0.04 -0.11 0.01 -0.03 -0.11
          0.02 -0.04 -0.11 0.02 -0.03 -0.11 0.03 -0.04 -0.11 0.03 -0.03 -0.11
          0.04 -0.04 -0.11 0.04 -0.03 -0.11 -0.04 -0.02 -0.11 -0.03 -0.02 -0.11
          -0.02 -0.02 -0.11 -0.01 -0.02 -0.11 -1.73472e-18 -0.02 -0.11 0.01 -0.02 -0.11
          0.02 -0.02 -0.11 0.03 -0.02 -0.11 0.04 -0.02 -0.11 -0.04 -0.01 -0.11
          -0.03 -0.01 -0.11 -0.02 -0.01 -0.11 -0.01 -0.01 -0.11 -1.73472e-18 -0.01 -0.11
          0.01 -0.01 -0.11 0.02 -0.01 -0.11 0.03 -0.01 -0.11 0.04 -0.01 -0.11
          -0.04 -1.73472e-18 -0.11 -0.03 -1.73472e-18 -0.11 -0.02 -1.73472e-18 -0.11 -0.01 -1.73472e-18 -0.11
          -1.73472e-18 -1.73472e-18 -0.11 0.01 -1.73472e-18 -0.11 0.02 -1.73472e-18 -0.11 0.03 -1.73472e-18 -0.11
          0.04 -1.73472e-18 -0.11 -0.04 0.01 -0.11 -0.03 0.01 -0.11 -0.02 0.01 -0.11
          -0.01 0.01 -0.11 -1.73472e-18 0.01 -0.11 0.01 0.01 -0.11 0.02 0.01 -0.11
          0.03 0.01 -0.11 0.04 0.01 -0.11 -0.04 0.02 -0.11 -0.03 0.02 -0.11
          -0.02 0.02 -0.11 -0.01 0.02 -0.11 -1.73472e-18 0.02 -0.11 0.01 0.02 -0.11
          0.02 0.02 -0.11 0.03 0.02 -0.11 0.04 0.02 -0.11 -0.04 0.03 -0.11
          -0.03 0.03 -0.11 -0.02 0.03 -0.11 -0.01 0.03 -0.11 -1.73472e-18 0.03 -0.11
          0.01 0.03 -0.11 0.02 0.03 -0.11 0.03 0.03 -0.11 0.04 0.03 -0.11
          -0.04 0.04 -0.11 -0.03 0.04 -0.11 -0.02 0.04 -0.11 -0.01 0.04 -0.11
          -1.73472e-18 0.04 -0.11 0.01 0.04 -0.11 0.02 0.04 -0.11 0.03 0.04 -0.11
          0.04 0.04 -0.11 -0.04 -0.04 -0.1 -0.03 -0.04 -0.1 -0.04 -0.03 -0.1
          -0.03 -0.03 -0.1 -0.02 -0.04 -0.1 -0.02 -0.03 -0.1 -0.01 -0.04 -0.1