<?xml version="1.0"?>
<VTKFile type="UnstructuredGrid" version="0.1" byte_order="LittleEndian">
  <UnstructuredGrid>
    <Piece NumberOfCells="4050" NumberOfPoints="5776">
      <CellData Scalars="S_liq">
        <DataArray type="Float32" Name="S_liq" NumberOfComponents="1" format="ascii">
          0.611668 0.611668 0.611668 0.611668 0.611668 0.611668 0.611668 0.611668 0.611668 0.611668 0.611668 0.611668
          0.611668 0.611668 0.611668 0.611668 0.611668 0.611668 0.611668 0.611668 0.611668 0.611668 0.611668 0.611668
          0.611668 0.611668 0.611668 0.611668 0.611668 0.611668 0.611668 0.611668 0.611668 0.611668 0.611668 0.611668
          0.611668 0.611668 0.611668 0.611668 0.611668 0.611668 0.611668 0.611668 0.611668 0.611668 0.611668 0.611668
          0.611668 0.611668 0.611668 0.611668 0.611668 0.611668 0.610537 0.610537 0.610537 0.610537 0.610537 0.610537
          0.610537 0.610537 0.610537 0.610537 0.610537 0.610537 0.610537 0.610537 0.610537 0.610537 0.610537 0.610537
          0.610537 0.610537 0.610537 0.610537 0.610537 0.610537 0.610537 0.610537 0.610537 0.610537 0.610537 0.610537
          0.610537 0.610537 0.610537 0.610537 0.610537 0.610537 0.610537 0.610537 0.610537 0.610537 0.610537 0.610537
          0.610537 0.610537 0.610537 0.610537 0.610537 0.610537 0.610537 0.610537 0.610537 0.610537 0.610537 0.610537
          0.609422 0.609422 0.609422 0.609422 0.609422 0.609422 0.609422 0.609422 0.609422 0.609422 0.609422 0.609422
          0.609422 0.609422 0.609422 0.609422 0.609422 0.609422 0.609422 0.609422 0.609422 0.609422 0.609422 0.609422
          0.609422 0.609422 0.609422 0.609422 0.609422 0.609422 0.609422 0.609422 0.609422 0.609422 0.609422 0.609422
          0.609422 0.609422 0.609422 0.609422 0.609422 0.609422 0.609422 0.609422 0.609422 0.609422 0.609422 0.609422
          0.609422 0.609422 0.609422 0.609422 0.609422 0.609422 0.608323 0.608323 0.608323 0.608323 0.608323 0.608323
          0.608323 0.608323 0.608323 0.608323 0.608323 0.608323 0.608323 0.608323 0.608323 0.608323 0.608323 0.608323
          0.608323 0.608323 0.608323 0.608323 0.608323 0.608323 0.608323 0.608323 0.608323 0.608323 0.608323 0.608323
          0.608323 0.608323 0.608323 0.608323 0.608323 0.608323 0.608323 0.608323 0.608323 0.608323 0.608323 0.608323
          0.608323 0.608323 0.608323 0.608323 0.608323 0.608323 0.608323 0.608323 0.608323 0.608323 0.608323 0.608323
          0.60724 0.60724 0.60724 0.60724 0.60724 0.60724 0.60724 0.60724 0.60724 0.60724 0.60724 0.60724
          0.60724 0.60724 0.60724 0.60724 0.60724 0.60724 0.60724 0.60724 0.60724 0.60724 0.60724 0.60724
          0.60724 0.60724 0.60724 0.60724 0.60724 0.60724 0.60724 0.60724 0.60724 0.60724 0.60724 0.60724
          0.60724 0.60724 0.60724 0.60724 0.60724 0.60724 0.60724 0.60724 0.60724 0.60724 0.60724 0.60724
          0.60724 0.60724 0.60724 0.60724 0.60724 0.60724 0.606173 0.606173 0.606173 0.606173 0.606173 0.606173
          0.606173 0.606173 0.606173 0.606173 0.606173 0.606173 0.606173 0.606173 0.606173 0.606173 0.606173 0.606173
          0.606173 0.606173 0.606173 0.606173 0.606173 0.606173 0.606173 0.606173 0.606173 0.606173 0.606173 0.606173
          0.606173 0.606173 0.606173 0.606173 0.606173 0.606173 0.606173 0.606173 0.606173 0.606173 0.606173 0.606173
          0.606173 0.606173 0.606173 0.606173 0.606173 0.606173 0.606173 0.606173 0.606173 0.606173 0.606173 0.606173
          0.60512 0.60512 0.60512 0.60512 0.60512 0.60512 0.60512 0.60512 0.60512 0.60512 0.60512 0.60512
          0.60512 0.60512 0.60512 0.60512 0.60512 0.60512 0.60512 0.60512 0.60512 0.60512 0.60512 0.60512
          0.60512 0.60512 0.60512 0.60512 0.60512 0.60512 0.60512 0.60512 0.60512 0.60512 0.60512 0.60512
          0.60512 0.60512 0.60512 0.60512 0.60512 0.60512 0.60512 0.60512 0.60512 0.60512 0.60512 0.60512
          0.60512 0.60512 0.60512 0.60512 0.60512 0.60512 0.604081 0.604081 0.604081 0.604081 0.604081 0.604081
          0.604081 0.604081 0.604081 0.604081 0.604081 0.604081 0.604081 0.604081 0.604081 0.604081 0.604081 0.604081
          0.604081 0.604081 0.604081 0.604081 0.604081 0.604081 0.604081 0.604081 0.604081 0.604081 0.604081 0.604081
          0.604081 0.604081 0.604081 0.604081 0.604081 0.604081 0.604081 0.604081 0.604081 0.604081 0.604081 0.604081
          0.604081 0.604081 0.604081 0.604081 0.604081 0.604081 0.604081 0.604081 0.604081 0.604081 0.604081 0.604081
          0.603056 0.603056 0.603056 0.603056 0.603056 0.603056 0.603056 0.603056 0.603056 0.603056 0.603056 0.603056
          0.603056 0.603056 0.603056 0.603056 0.603056 0.603056 0.603056 0.603056 0.603056 0.603056 0.603056 0.603056
          0.603056 0.603056 0.603056 0.603056 0.603056 0.603056 0.603056 0.603056 0.603056 0.603056 0.603056 0.603056
          0.603056 0.603056 0.603056 0.603056 0.603056 0.603056 0.603056 0.603056 0.603056 0.603056 0.603056 0.603056
          0.603056 0.603056 0.603056 0.603056 0.603056 0.603056 0.602045 0.602045 0.602045 0.602045 0.602045 0.602045
          0.602045 0.602045 0.602045 0.602045 0.602045 0.602045 0.602045 0.602045 0.602045 0.602045 0.602045 0.602045
          0.602045 0.602045 0.602045 0.602045 0.602045 0.602045 0.602045 0.602045 0.602045 0.602045 0.602045 0.602045
          0.602045 0.602045 0.602045 0.602045 0.602045 0.602045 0.602045 0.602045 0.602045 0.602045 0.602045 0.602045
          0.602045 0.602045 0.602045 0.602045 0.602045 0.602045 0.602045 0.602045 0.602045 0.602045 0.602045 0.602045
          0.601048 0.601048 0.601048 0.601048 0.601048 0.601048 0.601048 0.601048 0.601048 0.601048 0.601048 0.601048
          0.601048 0.601048 0.601048 0.601048 0.601048 0.601048 0.601048 0.601048 0.601048 0.601048 0.601048 0.601048
          0.601048 0.601048 0.601048 0.601048 0.601048 0.601048 0.601048 0.601048 0.601048 0.601048 0.601048 0.601048
          0.601048 0.601048 0.601048 0.601048 0.601048 0.601048 0.601048 0.601048 0.601048 0.601048 0.601048 0.601048
          0.601048 0.601048 0.601048 0.601048 0.601048 0.601048 0.600063 0.600063 0.600063 0.600063 0.600063 0.600063
          0.600063 0.600063 0.600063 0.600063 0.600063 0.600063 0.600063 0.600063 0.600063 0.600063 0.600063 0.600063
          0.600063 0.600063 0.600063 0.600063 0.600063 0.600063 0.600063 0.600063 0.600063 0.600063 0.600063 0.600063
          0.600063 0.600063 0.600063 0.600063 0.600063 0.600063 0.600063 0.600063 0.600063 0.600063 0.600063 0.600063
          0.600063 0.600063 0.600063 0.600063 0.600063 0.600063 0.600063 0.600063 0.600063 0.600063 0.600063 0.600063
          0.599091 0.599091 0.599091 0.599091 0.599091 0.599091 0.599091 0.599091 0.599091 0.599091 0.599091 0.599091
          0.599091 0.599091 0.599091 0.599091 0.599091 0.599091 0.599091 0.599091 0.599091 0.599091 0.599091 0.599091
          0.599091 0.599091 0.599091 0.599091 0.599091 0.599091 0.599091 0.599091 0.599091 0.599091 0.599091 0.599091
          0.599091 0.599091 0.599091 0.599091 0.599091 0.599091 0.599091 0.599091 0.599091 0.599091 0.599091 0.599091
          0.599091 0.599091 0.599091 0.599091 0.599091 0.599091 0.598132 0.598132 0.598132 0.598132 0.598132 0.598132
          0.598132 0.598132 0.598132 0.598132 0.598132 0.598132 0.598132 0.598132 0.598132 0.598132 0.598132 0.598132
          0.598132 0.598132 0.598132 0.598132 0.598132 0.598132 0.598132 0.598132 0.598132 0.598132 0.598132 0.598132
          0.598132 0.598132 0.598132 0.598132 0.598132 0.598132 0.598132 0.598132 0.598132 0.598132 0.598132 0.598132
          0.598132 0.598132 0.598132 0.598132 0.598132 0.598132 0.598132 0.598132 0.598132 0.598132 0.598132 0.598132
          0.597185 0.597185 0.597185 0.597185 0.597185 0.597185 0.597185 0.597185 0.597185 0.597185 0.597185 0.597185
          0.597185 0.597185 0.597185 0.597185 0.597185 0.597185 0.597185 0.597185 0.597185 0.597185 0.597185 0.597185
          0.597185 0.597185 0.597185 0.597185 0.597185 0.597185 0.597185 0.597185 0.597185 0.597185 0.597185 0.597185
          0.597185 0.597185 0.597185 0.597185 0.597185 0.597185 0.597185 0.597185 0.597185 0.597185 0.597185 0.597185
          0.597185 0.597185 0.597185 0.597185 0.597185 0.597185 0.596249 0.596249 0.596249 0.596249 0.596249 0.596249
          0.596249 0.596249 0.596249 0.596249 0.596249 0.596249 0.596249 0.596249 0.596249 0.596249 0.596249 0.596249
          0.596249 0.596249 0.596249 0.596249 0.596249 0.596249 0.596249 0.596249 0.596249 0.596249 0.596249 0.596249
          0.596249 0.596249 0.596249 0.596249 0.596249 0.596249 0.596249 0.596249 0.596249 0.596249 0.596249 0.596249
          0.596249 0.596249 0.596249 0.596249 0.596249 0.596249 0.596249 0.596249 0.596249 0.596249 0.596249 0.596249
          0.595325 0.595325 0.595325 0.595325 0.595325 0.595325 0.595325 0.595325 0.595325 0.595325 0.595325 0.595325
          0.595325 0.595325 0.595325 0.595325 0.595325 0.595325 0.595325 0.595325 0.595325 0.595325 0.595325 0.595325
          0.595325 0.595325 0.595325 0.595325 0.595325 0.595325 0.595325 0.595325 0.595325 0.595325 0.595325 0.595325
          0.595325 0.595325 0.595325 0.595325 0.595325 0.595325 0.595325 0.595325 0.595325 0.595325 0.595325 0.595325
          0.595325 0.595325 0.595325 0.595325 0.595325 0.595325 0.594412 0.594412 0.594412 0.594412 0.594412 0.594412
          0.594412 0.594412 0.594412 0.594412 0.594412 0.594412 0.594412 0.594412 0.594412 0.594412 0.594412 0.594412
          0.594412 0.594412 0.594412 0.594412 0.594412 0.594412 0.594412 0.594412 0.594412 0.594412 0.594412 0.594412
          0.594412 0.594412 0.594412 0.594412 0.594412 0.594412 0.594412 0.594412 0.594412 0.594412 0.594412 0.594412
          0.594412 0.594412 0.594412 0.594412 0.594412 0.594412 0.594412 0.594412 0.594412 0.594412 0.594412 0.594412
          0.593511 0.593511 0.593511 0.593511 0.593511 0.593511 0.593511 0.593511 0.593511 0.593511 0.593511 0.593511
          0.593511 0.593511 0.593511 0.593511 0.593511 0.593511 0.593511 0.593511 0.593511 0.593511 0.593511 0.593511
          0.593511 0.593511 0.593511 0.593511 0.593511 0.593511 0.593511 0.593511 0.593511 0.593511 0.593511 0.593511
          0.593511 0.593511 0.593511 0.593511 0.593511 0.593511 0.593511 0.593511 0.593511 0.593511 0.593511 0.593511
          0.593511 0.593511 0.593511 0.593511 0.593511 0.593511 0.59262 0.59262 0.59262 0.59262 0.59262 0.59262
          0.59262 0.59262 0.59262 0.59262 0.59262 0.59262 0.59262 0.59262 0.59262 0.59262 0.59262 0.59262
          0.59262 0.59262 0.59262 0.59262 0.59262 0.59262 0.59262 0.59262 0.59262 0.59262 0.59262 0.59262
          0.59262 0.59262 0.59262 0.59262 0.59262 0.59262 0.59262 0.59262 0.59262 0.59262 0.59262 0.59262
          0.59262 0.59262 0.59262 0.59262 0.59262 0.59262 0.59262 0.59262 0.59262 0.59262 0.59262 0.59262
          0.59174 0.59174 0.59174 0.59174 0.59174 0.59174 0.59174 0.59174 0.59174 0.59174 0.59174 0.59174
          0.59174 0.59174 0.59174 0.59174 0.59174 0.59174 0.59174 0.59174 0.59174 0.59174 0.59174 0.59174
          0.59174 0.59174 0.59174 0.59174 0.59174 0.59174 0.59174 0.59174 0.59174 0.59174 0.59174 0.59174
          0.59174 0.59174 0.59174 0.59174 0.59174 0.59174 0.59174 0.59174 0.59174 0.59174 0.59174 0.59174
          0.59174 0.59174 0.59174 0.59174 0.59174 0.59174 0.59087 0.59087 0.59087 0.59087 0.59087 0.59087
          0.59087 0.59087 0.59087 0.59087 0.59087 0.59087 0.59087 0.59087 0.59087 0.59087 0.59087 0.59087
          0.59087 0.59087 0.59087 0.59087 0.59087 0.59087 0.59087 0.59087 0.59087 0.59087 0.59087 0.59087
          0.59087 0.59087 0.59087 0.59087 0.59087 0.59087 0.59087 0.59087 0.59087 0.59087 0.59087 0.59087
          0.59087 0.59087 0.59087 0.59087 0.59087 0.59087 0.59087 0.59087 0.59087 0.59087 0.59087 0.59087
          0.59001 0.59001 0.59001 0.59001 0.59001 0.59001 0.59001 0.59001 0.59001 0.59001 0.59001 0.59001
          0.59001 0.59001 0.59001 0.59001 0.59001 0.59001 0.59001 0.59001 0.59001 0.59001 0.59001 0.59001
          0.59001 0.59001 0.59001 0.59001 0.59001 0.59001 0.59001 0.59001 0.59001 0.59001 0.59001 0.59001
          0.59001 0.59001 0.59001 0.59001 0.59001 0.59001 0.59001 0.59001 0.59001 0.59001 0.59001 0.59001
          0.59001 0.59001 0.59001 0.59001 0.59001 0.59001 0.58916 0.58916 0.58916 0.58916 0.58916 0.58916
          0.58916 0.58916 0.58916 0.58916 0.58916 0.58916 0.58916 0.58916 0.58916 0.58916 0.58916 0.58916
          0.58916 0.58916 0.58916 0.58916 0.58916 0.58916 0.58916 0.58916 0.58916 0.58916 0.58916 0.58916
          0.58916 0.58916 0.58916 0.58916 0.58916 0.58916 0.58916 0.58916 0.58916 0.58916 0.58916 0.58916
          0.58916 0.58916 0.58916 0.58916 0.58916 0.58916 0.58916 0.58916 0.58916 0.58916 0.58916 0.58916
          0.588319 0.588319 0.588319 0.588319 0.588319 0.588319 0.588319 0.588319 0.588319 0.588319 0.588319 0.588319
          0.588319 0.588319 0.588319 0.588319 0.588319 0.588319 0.588319 0.588319 0.588319 0.588319 0.588319 0.588319
          0.588319 0.588319 0.588319 0.588319 0.588319 0.588319 0.588319 0.588319 0.588319 0.588319 0.588319 0.588319
          0.588319 0.588319 0.588319 0.588319 0.588319 0.588319 0.588319 0.588319 0.588319 0.588319 0.588319 0.588319
          0.588319 0.588319 0.588319 0.588319 0.588319 0.588319 0.587488 0.587488 0.587488 0.587488 0.587488 0.587488
          0.587488 0.587488 0.587488 0.587488 0.587488 0.587488 0.587488 0.587488 0.587488 0.587488 0.587488 0.587488
          0.587488 0.587488 0.587488 0.587488 0.587488 0.587488 0.587488 0.587488 0.587488 0.587488 0.587488 0.587488
          0.587488 0.587488 0.587488 0.587488 0.587488 0.587488 0.587488 0.587488 0.587488 0.587488 0.587488 0.587488
          0.587488 0.587488 0.587488 0.587488 0.587488 0.587488 0.587488 0.587488 0.587488 0.587488 0.587488 0.587488
          0.586667 0.586667 0.586667 0.586667 0.586667 0.586667 0.586667 0.586667 0.586667 0.586667 0.586667 0.586667
          0.586667 0.586667 0.586667 0.586667 0.586667 0.586667 0.586667 0.586667 0.586667 0.586667 0.586667 0.586667
          0.586667 0.586667 0.586667 0.586667 0.586667 0.586667 0.586667 0.586667 0.586667 0.586667 0.586667 0.586667
          0.586667 0.586667 0.586667 0.586667 0.586667 0.586667 0.586667 0.586667 0.586667 0.586667 0.586667 0.586667
          0.586667 0.586667 0.586667 0.586667 0.586667 0.586667 0.585854 0.585854 0.585854 0.585854 0.585854 0.585854
          0.585854 0.585854 0.585854 0.585854 0.585854 0.585854 0.585854 0.585854 0.585854 0.585854 0.585854 0.585854
          0.585854 0.585854 0.585854 0.585854 0.585854 0.585854 0.585854 0.585854 0.585854 0.585854 0.585854 0.585854
          0.585854 0.585854 0.585854 0.585854 0.585854 0.585854 0.585854 0.585854 0.585854 0.585854 0.585854 0.585854
          0.585854 0.585854 0.585854 0.585854 0.585854 0.585854 0.585854 0.585854 0.585854 0.585854 0.585854 0.585854
          0.585051 0.585051 0.585051 0.585051 0.585051 0.585051 0.585051 0.585051 0.585051 0.585051 0.585051 0.585051
          0.585051 0.585051 0.585051 0.585051 0.585051 0.585051 0.585051 0.585051 0.585051 0.585051 0.585051 0.585051
          0.585051 0.585051 0.585051 0.585051 0.585051 0.585051 0.585051 0.585051 0.585051 0.585051 0.585051 0.585051
          0.585051 0.585051 0.585051 0.585051 0.585051 0.585051 0.585051 0.585051 0.585051 0.585051 0.585051 0.585051
          0.585051 0.585051 0.585051 0.585051 0.585051 0.585051 0.584256 0.584256 0.584256 0.584256 0.584256 0.584256
          0.584256 0.584256 0.584256 0.584256 0.584256 0.584256 0.584256 0.584256 0.584256 0.584256 0.584256 0.584256
          0.584256 0.584256 0.584256 0.584256 0.584256 0.584256 0.584256 0.584256 0.584256 0.584256 0.584256 0.584256
          0.584256 0.584256 0.584256 0.584256 0.584256 0.584256 0.584256 0.584256 0.584256 0.584256 0.584256 0.584256
          0.584256 0.584256 0.584256 0.584256 0.584256 0.584256 0.584256 0.584256 0.584256 0.584256 0.584256 0.584256
          0.583469 0.583469 0.583469 0.583469 0.583469 0.583469 0.583469 0.583469 0.583469 0.583469 0.583469 0.583469
          0.583469 0.583469 0.583469 0.583469 0.583469 0.583469 0.583469 0.583469 0.583469 0.583469 0.583469 0.583469
          0.583469 0.583469 0.583469 0.583469 0.583469 0.583469 0.583469 0.583469 0.583469 0.583469 0.583469 0.583469
          0.583469 0.583469 0.583469 0.583469 0.583469 0.583469 0.583469 0.583469 0.583469 0.583469 0.583469 0.583469
          0.583469 0.583469 0.583469 0.583469 0.583469 0.583469 0.582691 0.582691 0.582691 0.582691 0.582691 0.582691
          0.582691 0.582691 0.582691 0.582691 0.582691 0.582691 0.582691 0.582691 0.582691 0.582691 0.582691 0.582691
          0.582691 0.582691 0.582691 0.582691 0.582691 0.582691 0.582691 0.582691 0.582691 0.582691 0.582691 0.582691
          0.582691 0.582691 0.582691 0.582691 0.582691 0.582691 0.582691 0.582691 0.582691 0.582691 0.582691 0.582691
          0.582691 0.582691 0.582691 0.582691 0.582691 0.582691 0.582691 0.582691 0.582691 0.582691 0.582691 0.582691
          0.581921 0.581921 0.581921 0.581921 0.581921 0.581921 0.581921 0.581921 0.581921 0.581921 0.581921 0.581921
          0.581921 0.581921 0.581921 0.581921 0.581921 0.581921 0.581921 0.581921 0.581921 0.581921 0.581921 0.581921
          0.581921 0.581921 0.581921 0.581921 0.581921 0.581921 0.581921 0.581921 0.581921 0.581921 0.581921 0.581921
          0.581921 0.581921 0.581921 0.581921 0.581921 0.581921 0.581921 0.581921 0.581921 0.581921 0.581921 0.581921
          0.581921 0.581921 0.581921 0.581921 0.581921 0.581921 0.58116 0.58116 0.58116 0.58116 0.58116 0.58116
          0.58116 0.58116 0.58116 0.58116 0.58116 0.58116 0.58116 0.58116 0.58116 0.58116 0.58116 0.58116
          0.58116 0.58116 0.58116 0.58116 0.58116 0.58116 0.58116 0.58116 0.58116 0.58116 0.58116 0.58116
          0.58116 0.58116 0.58116 0.58116 0.58116 0.58116 0.58116 0.58116 0.58116 0.58116 0.58116 0.58116
          0.58116 0.58116 0.58116 0.58116 0.58116 0.58116 0.58116 0.58116 0.58116 0.58116 0.58116 0.58116
          0.580406 0.580406 0.580406 0.580406 0.580406 0.580406 0.580406 0.580406 0.580406 0.580406 0.580406 0.580406
          0.580406 0.580406 0.580406 0.580406 0.580406 0.580406 0.580406 0.580406 0.580406 0.580406 0.580406 0.580406
          0.580406 0.580406 0.580406 0.580406 0.580406 0.580406 0.580406 0.580406 0.580406 0.580406 0.580406 0.580406
          0.580406 0.580406 0.580406 0.580406 0.580406 0.580406 0.580406 0.580406 0.580406 0.580406 0.580406 0.580406
          0.580406 0.580406 0.580406 0.580406 0.580406 0.580406 0.579659 0.579659 0.579659 0.579659 0.579659 0.579659
          0.579659 0.579659 0.579659 0.579659 0.579659 0.579659 0.579659 0.579659 0.579659 0.579659 0.579659 0.579659
          0.579659 0.579659 0.579659 0.579659 0.579659 0.579659 0.579659 0.579659 0.579659 0.579659 0.579659 0.579659
          0.579659 0.579659 0.579659 0.579659 0.579659 0.579659 0.579659 0.579659 0.579659 0.579659 0.579659 0.579659
          0.579659 0.579659 0.579659 0.579659 0.579659 0.579659 0.579659 0.579659 0.579659 0.579659 0.579659 0.579659
          0.578921 0.578921 0.578921 0.578921 0.578921 0.578921 0.578921 0.578921 0.578921 0.578921 0.578921 0.578921
          0.578921 0.578921 0.578921 0.578921 0.578921 0.578921 0.578921 0.578921 0.578921 0.578921 0.578921 0.578921
          0.578921 0.578921 0.578921 0.578921 0.578921 0.578921 0.578921 0.578921 0.578921 0.578921 0.578921 0.578921
          0.578921 0.578921 0.578921 0.578921 0.578921 0.578921 0.578921 0.578921 0.578921 0.578921 0.578921 0.578921
          0.578921 0.578921 0.578921 0.578921 0.578921 0.578921 0.57819 0.57819 0.57819 0.57819 0.57819 0.57819
          0.57819 0.57819 0.57819 0.57819 0.57819 0.57819 0.57819 0.57819 0.57819 0.57819 0.57819 0.57819
          0.57819 0.57819 0.57819 0.57819 0.57819 0.57819 0.57819 0.57819 0.57819 0.57819 0.57819 0.57819
          0.57819 0.57819 0.57819 0.57819 0.57819 0.57819 0.57819 0.57819 0.57819 0.57819 0.57819 0.57819
          0.57819 0.57819 0.57819 0.57819 0.57819 0.57819 0.57819 0.57819 0.57819 0.57819 0.57819 0.57819
          0.577466 0.577466 0.577466 0.577466 0.577466 0.577466 0.577466 0.577466 0.577466 0.577466 0.577466 0.577466
          0.577466 0.577466 0.577466 0.577466 0.577466 0.577466 0.577466 0.577466 0.577466 0.577466 0.577466 0.577466
          0.577466 0.577466 0.577466 0.577466 0.577466 0.577466 0.577466 0.577466 0.577466 0.577466 0.577466 0.577466
          0.577466 0.577466 0.577466 0.577466 0.577466 0.577466 0.577466 0.577466 0.577466 0.577466 0.577466 0.577466
          0.577466 0.577466 0.577466 0.577466 0.577466 0.577466 0.576749 0.576749 0.576749 0.576749 0.576749 0.576749
          0.576749 0.576749 0.576749 0.576749 0.576749 0.576749 0.576749 0.576749 0.576749 0.576749 0.576749 0.576749
          0.576749 0.576749 0.576749 0.576749 0.576749 0.576749 0.576749 0.576749 0.576749 0.576749 0.576749 0.576749
          0.576749 0.576749 0.576749 0.576749 0.576749 0.576749 0.576749 0.576749 0.576749 0.576749 0.576749 0.576749
          0.576749 0.576749 0.576749 0.576749 0.576749 0.576749 0.576749 0.576749 0.576749 0.576749 0.576749 0.576749
          0.576039 0.576039 0.576039 0.576039 0.576039 0.576039 0.576039 0.576039 0.576039 0.576039 0.576039 0.576039
          0.576039 0.576039 0.576039 0.576039 0.576039 0.576039 0.576039 0.576039 0.576039 0.576039 0.576039 0.576039
          0.576039 0.576039 0.576039 0.576039 0.576039 0.576039 0.576039 0.576039 0.576039 0.576039 0.576039 0.576039
          0.576039 0.576039 0.576039 0.576039 0.576039 0.576039 0.576039 0.576039 0.576039 0.576039 0.576039 0.576039
          0.576039 0.576039 0.576039 0.576039 0.576039 0.576039 0.575337 0.575337 0.575337 0.575337 0.575337 0.575337
          0.575337 0.575337 0.575337 0.575337 0.575337 0.575337 0.575337 0.575337 0.575337 0.575337 0.575337 0.575337
          0.575337 0.575337 0.575337 0.575337 0.575337 0.575337 0.575337 0.575337 0.575337 0.575337 0.575337 0.575337
          0.575337 0.575337 0.575337 0.575337 0.575337 0.575337 0.575337 0.575337 0.575337 0.575337 0.575337 0.575337
          0.575337 0.575337 0.575337 0.575337 0.575337 0.575337 0.575337 0.575337 0.575337 0.575337 0.575337 0.575337
          0.574641 0.574641 0.574641 0.574641 0.574641 0.574641 0.574641 0.574641 0.574641 0.574641 0.574641 0.574641
          0.574641 0.574641 0.574641 0.574641 0.574641 0.574641 0.574641 0.574641 0.574641 0.574641 0.574641 0.574641
          0.574641 0.574641 0.574641 0.574641 0.574641 0.574641 0.574641 0.574641 0.574641 0.574641 0.574641 0.574641
          0.574641 0.574641 0.574641 0.574641 0.574641 0.574641 0.574641 0.574641 0.574641 0.574641 0.574641 0.574641
          0.574641 0.574641 0.574641 0.574641 0.574641 0.574641 0.573951 0.573951 0.573951 0.573951 0.573951 0.573951
          0.573951 0.573951 0.573951 0.573951 0.573951 0.573951 0.573951 0.573951 0.573951 0.573951 0.573951 0.573951
          0.573951 0.573951 0.573951 0.573951 0.573951 0.573951 0.573951 0.573951 0.573951 0.573951 0.573951 0.573951
          0.573951 0.573951 0.573951 0.573951 0.573951 0.573951 0.573951 0.573951 0.573951 0.573951 0.573951 0.573951
          0.573951 0.573951 0.573951 0.573951 0.573951 0.573951 0.573951 0.573951 0.573951 0.573951 0.573951 0.573951
          0.573269 0.573269 0.573269 0.573269 0.573269 0.573269 0.573269 0.573269 0.573269 0.573269 0.573269 0.573269
          0.573269 0.573269 0.573269 0.573269 0.573269 0.573269 0.573269 0.573269 0.573269 0.573269 0.573269 0.573269
          0.573269 0.573269 0.573269 0.573269 0.573269 0.573269 0.573269 0.573269 0.573269 0.573269 0.573269 0.573269
          0.573269 0.573269 0.573269 0.573269 0.573269 0.573269 0.573269 0.573269 0.573269 0.573269 0.573269 0.573269
          0.573269 0.573269 0.573269 0.573269 0.573269 0.573269 0.572592 0.572592 0.572592 0.572592 0.572592 0.572592
          0.572592 0.572592 0.572592 0.572592 0.572592 0.572592 0.572592 0.572592 0.572592 0.572592 0.572592 0.572592
          0.572592 0.572592 0.572592 0.572592 0.572592 0.572592 0.572592 0.572592 0.572592 0.572592 0.572592 0.572592
          0.572592 0.572592 0.572592 0.572592 0.572592 0.572592 0.572592 0.572592 0.572592 0.572592 0.572592 0.572592
          0.572592 0.572592 0.572592 0.572592 0.572592 0.572592 0.572592 0.572592 0.572592 0.572592 0.572592 0.572592
          0.571922 0.571922 0.571922 0.571922 0.571922 0.571922 0.571922 0.571922 0.571922 0.571922 0.571922 0.571922
          0.571922 0.571922 0.571922 0.571922 0.571922 0.571922 0.571922 0.571922 0.571922 0.571922 0.571922 0.571922
          0.571922 0.571922 0.571922 0.571922 0.571922 0.571922 0.571922 0.571922 0.571922 0.571922 0.571922 0.571922
          0.571922 0.571922 0.571922 0.571922 0.571922 0.571922 0.571922 0.571922 0.571922 0.571922 0.571922 0.571922
          0.571922 0.571922 0.571922 0.571922 0.571922 0.571922 0.571258 0.571258 0.571258 0.571258 0.571258 0.571258
          0.571258 0.571258 0.571258 0.571258 0.571258 0.571258 0.571258 0.571258 0.571258 0.571258 0.571258 0.571258
          0.571258 0.571258 0.571258 0.571258 0.571258 0.571258 0.571258 0.571258 0.571258 0.571258 0.571258 0.571258
          0.571258 0.571258 0.571258 0.571258 0.571258 0.571258 0.571258 0.571258 0.571258 0.571258 0.571258 0.571258
          0.571258 0.571258 0.571258 0.571258 0.571258 0.571258 0.571258 0.571258 0.571258 0.571258 0.571258 0.571258
          0.570601 0.570601 0.570601 0.570601 0.570601 0.570601 0.570601 0.570601 0.570601 0.570601 0.570601 0.570601
          0.570601 0.570601 0.570601 0.570601 0.570601 0.570601 0.570601 0.570601 0.570601 0.570601 0.570601 0.570601
          0.570601 0.570601 0.570601 0.570601 0.570601 0.570601 0.570601 0.570601 0.570601 0.570601 0.570601 0.570601
          0.570601 0.570601 0.570601 0.570601 0.570601 0.570601 0.570601 0.570601 0.570601 0.570601 0.570601 0.570601
          0.570601 0.570601 0.570601 0.570601 0.570601 0.570601 0.569949 0.569949 0.569949 0.569949 0.569949 0.569949
          0.569949 0.569949 0.569949 0.569949 0.569949 0.569949 0.569949 0.569949 0.569949 0.569949 0.569949 0.569949
          0.569949 0.569949 0.569949 0.569949 0.569949 0.569949 0.569949 0.569949 0.569949 0.569949 0.569949 0.569949
          0.569949 0.569949 0.569949 0.569949 0.569949 0.569949 0.569949 0.569949 0.569949 0.569949 0.569949 0.569949
          0.569949 0.569949 0.569949 0.569949 0.569949 0.569949 0.569949 0.569949 0.569949 0.569949 0.569949 0.569949
          0.569303 0.569303 0.569303 0.569303 0.569303 0.569303 0.569303 0.569303 0.569303 0.569303 0.569303 0.569303
          0.569303 0.569303 0.569303 0.569303 0.569303 0.569303 0.569303 0.569303 0.569303 0.569303 0.569303 0.569303
          0.569303 0.569303 0.569303 0.569303 0.569303 0.569303 0.569303 0.569303 0.569303 0.569303 0.569303 0.569303
          0.569303 0.569303 0.569303 0.569303 0.569303 0.569303 0.569303 0.569303 0.569303 0.569303 0.569303 0.569303
          0.569303 0.569303 0.569303 0.569303 0.569303 0.569303 0.568663 0.568663 0.568663 0.568663 0.568663 0.568663
          0.568663 0.568663 0.568663 0.568663 0.568663 0.568663 0.568663 0.568663 0.568663 0.568663 0.568663 0.568663
          0.568663 0.568663 0.568663 0.568663 0.568663 0.568663 0.568663 0.568663 0.568663 0.568663 0.568663 0.568663
          0.568663 0.568663 0.568663 0.568663 0.568663 0.568663 0.568663 0.568663 0.568663 0.568663 0.568663 0.568663
          0.568663 0.568663 0.568663 0.568663 0.568663 0.568663 0.568663 0.568663 0.568663 0.568663 0.568663 0.568663
          0.568029 0.568029 0.568029 0.568029 0.568029 0.568029 0.568029 0.568029 0.568029 0.568029 0.568029 0.568029
          0.568029 0.568029 0.568029 0.568029 0.568029 0.568029 0.568029 0.568029 0.568029 0.568029 0.568029 0.568029
          0.568029 0.568029 0.568029 0.568029 0.568029 0.568029 0.568029 0.568029 0.568029 0.568029 0.568029 0.568029
          0.568029 0.568029 0.568029 0.568029 0.568029 0.568029 0.568029 0.568029 0.568029 0.568029 0.568029 0.568029
          0.568029 0.568029 0.568029 0.568029 0.568029 0.568029 0.5674 0.5674 0.5674 0.5674 0.5674 0.5674
          0.5674 0.5674 0.5674 0.5674 0.5674 0.5674 0.5674 0.5674 0.5674 0.5674 0.5674 0.5674
          0.5674 0.5674 0.5674 0.5674 0.5674 0.5674 0.5674 0.5674 0.5674 0.5674 0.5674 0.5674
          0.5674 0.5674 0.5674 0.5674 0.5674 0.5674 0.5674 0.5674 0.5674 0.5674 0.5674 0.5674
          0.5674 0.5674 0.5674 0.5674 0.5674 0.5674 0.5674 0.5674 0.5674 0.5674 0.5674 0.5674
          0.566777 0.566777 0.566777 0.566777 0.566777 0.566777 0.566777 0.566777 0.566777 0.566777 0.566777 0.566777
          0.566777 0.566777 0.566777 0.566777 0.566777 0.566777 0.566777 0.566777 0.566777 0.566777 0.566777 0.566777
          0.566777 0.566777 0.566777 0.566777 0.566777 0.566777 0.566777 0.566777 0.566777 0.566777 0.566777 0.566777
          0.566777 0.566777 0.566777 0.566777 0.566777 0.566777 0.566777 0.566777 0.566777 0.566777 0.566777 0.566777
          0.566777 0.566777 0.566777 0.566777 0.566777 0.566777 0.566159 0.566159 0.566159 0.566159 0.566159 0.566159
          0.566159 0.566159 0.566159 0.566159 0.566159 0.566159 0.566159 0.566159 0.566159 0.566159 0.566159 0.566159
          0.566159 0.566159 0.566159 0.566159 0.566159 0.566159 0.566159 0.566159 0.566159 0.566159 0.566159 0.566159
          0.566159 0.566159 0.566159 0.566159 0.566159 0.566159 0.566159 0.566159 0.566159 0.566159 0.566159 0.566159
          0.566159 0.566159 0.566159 0.566159 0.566159 0.566159 0.566159 0.566159 0.566159 0.566159 0.566159 0.566159
          0.565547 0.565547 0.565547 0.565547 0.565547 0.565547 0.565547 0.565547 0.565547 0.565547 0.565547 0.565547
          0.565547 0.565547 0.565547 0.565547 0.565547 0.565547 0.565547 0.565547 0.565547 0.565547 0.565547 0.565547
          0.565547 0.565547 0.565547 0.565547 0.565547 0.565547 0.565547 0.565547 0.565547 0.565547 0.565547 0.565547
          0.565547 0.565547 0.565547 0.565547 0.565547 0.565547 0.565547 0.565547 0.565547 0.565547 0.565547 0.565547