<?xml version="1.0"?>
<VTKFile type="UnstructuredGrid" version="0.1" byte_order="LittleEndian">
  <UnstructuredGrid>
    <Piece NumberOfCells="30400" NumberOfPoints="33579">
      <CellData Scalars="p (Pa)">
        <DataArray type="Float32" Name="p (Pa)" NumberOfComponents="1" format="ascii">
          13825.5 13011 12275.5 11635.2 11109.3 10722.1 10505.2 10496.4 10733.6 11236.9 11985.2 12906.9
          13907.3 14898.9 15815.6 16614.3 17269.5 17767.5 18101.8 18269.4 13469.9 12646.9 11908.5 11272.1
          10757.7 10389.6 10198.3 10219.9 10490.4 11028.5 11811.6 12764.7 13790.7 14801.7 15732.9 16542.1
          17204.8 17708 18045.5 18214.6 12742.3 11900.2 11154.4 10525.4 10035.1 9708.14 9573.21 9662.75
          10007.3 10620.1 11473.5 12487.1 13561.8 14610.3 15569.5 16399.4 17077.1 17590.6 17934.7 18107
          11608.1 10731.5 9969.72 9349.33 8896.48 8636.8 8596.39 8801.35 9272.01 10008.5 10971.5 12075.8
          13222.5 14326.5 15327.9 16189.2 16889.6 17419.1 17773.1 17950.3 10011.7 9074.75 8279.8 7663.96
          7260.89 7097.86 7196.57 7573.19 8232.14 9152.92 10277.6 11514.2 12764.5 13948 15009.2 15914.7
          16647.2 17198.7 17566.7 17750.7 7871.13 6829.22 5966.43 5339.37 4995.12 4962.02 5253.07 5869.64
          6794.92 7980.53 9341.38 10771.8 12173 13469.9 14614.6 15580.8 16356.4 16937.5 17323.8 17516.6
          5071.34 3844.54 2845.66 2169.03 1887.71 2026.98 2580.76 3529.02 4829.59 6397.03 8103.15 9816.52
          11434.2 12890.2 14149 15195.9 16027.6 16646.3 17055.9 17259.7 1455.36 -101.837 -1371.34 -2180.19
          -2398.08 -2019.27 -1095.9 321.003 2163.15 4293.55 6507.11 8627.23 10546.7 12217.1 13625 14774.4
          15675.8 16340.5 16778.1 16995.2 -3185.44 -5341.7 -7150.27 -8265.25 -8409.65 -7656.75 -6177.73 -4069.38
          -1417.06 1565.14 4523.49 7212.05 9532.78 11475.9 13066.9 14338.9 15321.9 16039.7 16509.3 16741.5
          -9119.29 -12371.6 -15269.9 -17068 -17061.5 -15610.6 -13204.9 -10008.7 -6099.88 -1818.9 2199.73 5636.92
          8452.09 10715.1 12513.4 13921 14993 15768.1 16272.1 16520.4 -16682.7 -21954.2 -27110.9 -30464.8
          -29940.3 -26914 -22738.2 -17673.4 -11782.9 -5626.94 -247.144 4060.26 7411.62 10007 12015.8 13559.6
          14720.4 15552.6 16090.7 16355.1 -26317.3 -35363.9 -45456 -52640.5 -50072.3 -42884.8 -34851.3 -26304
          -17453.5 -9098.85 -2366.3 2731.74 6552.8 9437.7 11631.4 13296.1 14536.8 15420.8 15990 16269
          -38738.9 -55230 -77663 -96009.4 -84896.7 -65124.5 -48204.7 -33441.9 -21152 -11222.9 -3688.95 1878.51
          5998.85 9082.71 11411.5 13168.6 14472.3 15397.8 15992.3 16283.3 -55348.7 -88285.4 -149811 -205901
          -159630 -96460.8 -61296.8 -38665.2 -23183.1 -12164.7 -4229.82 1541.94 5800.25 8986.9 11392.8 13206.7
          14551 15504.2 16115.9 16415 -78125.7 -148721 -277962 -270441 -283142 -132897 -71143.3 -41359
          -23699.2 -12115 -4075.8 1706.44 5971.82 9173.61 11598.3 13430.4 14789.7 15754.1 16373 16675.7
          -103581 -203651 -310879 -247975 -169705 -101830 -63989.5 -38515.6 -21968.5 -10902 -3188.24 2386.98
          6527.36 9657.01 12041.2 13850.7 15197.3 16154.6 16769.6 17070.6 -126381 -219331 -194269 -135422
          -95656.3 -67408.8 -46964.3 -30562.6 -17793.9 -8393.1 -1511.67 3604.04 7475.32 10441.7 12724.2 14469.1
          15774.3 16705.2 17304.6 17598.3 -147464 -176549 -126942 -86425.3 -61328.4 -44508.9 -31829.8 -21212.7
          -12159.4 -4853.34 868.199 5320.16 8794.21 11513 13636.2 15276.3 16512.1 17397.9 17970 18250.8
          -179874 -140152 -88822.5 -58594.6 -40716 -28930.3 -20118.5 -12774.4 -6348.37 -859.421 3696.43 7413.08
          10417.5 12829.7 14748.5 16250.3 17392.5 18216.6 18751.1 19014 -184611 -106199 -62164.4 -39518.4
          -26329.8 -17591.1 -11073.5 -5699.05 -997.353 3130.64 6695.62 9719.48 12245.7 14327.3 16016.1 17357.6
          18389 19138.7 19627.5 19868.6 -170656 -77364.5 -42105.2 -25328.9 -15520.3 -8906.38 -3931.92 152.901
          3708.1 6863.13 9651.83 12083.6 14170.1 15929.5 17384.1 18556.8 19468.6 20136.8 20574.8 20791.6
          -102386 -47632.8 -25671.6 -14194.6 -7041.93 -2021.64 1832.99 5013.1 7774.7 10234.2 12434.6 14387.5
          16095.8 17563.2 18796.4 19804.1 20595.9 21180.9 21566.5 21758 -47096.9 -25244 -13002 -5429.23
          -263.457 3554.11 6568.29 9083.27 11271.8 13224.2 14981.4 16556.9 17953.1 19168.8 20203.6 21058.9
          21737.3 22242.2 22576.6 22743.2 -22089.7 -11027.2 -3672.26 1445.12 5211.99 8134 10509.1 12520.2
          14279.8 15853.1 17273.4 18554.2 19698.1 20703.5 21567.4 22287.7 22863.5 23294.5 23581.4 23724.6
          -7470.81 -1304.73 3351.77 6900.63 9683.82 11938 13822.2 15443.5 16873.1 18155.7 19316.1 20365.9
          21307.9 22140.7 22860.9 23465.3 23951.1 24316.6 24560.7 24682.8 2082.51 5727.46 8782.18 11294.2
          13374.8 15126.2 16629.3 17944.4 19114.8 20169.6 21126.3 21993.6 22774 23466.4 24067.6 24574.3
          24983.3 25292 25498.8 25602.4 8734.56 11002.9 13067.6 14876.7 16447.8 17817.1 19021.7 20093.2
          21056.8 21930.1 22724.7 23446.4 24096.9 24675.3 25178.7 25604.2 25948.6 26209.2 26384 26471.7
          13598.5 15071.9 16503.5 17826.1 19022.9 20099.3 21068.4 21944.8 22741.5 23468.5 24132.4 24736.7
          25282.2 25767.8 26191.3 26549.7 26840.3 27060.5 27208.4 27282.7 17290.8 18278.9 19292.1 20271.2
          21190.1 22040.5 22823.1 23542.3 24203.4 24811.2 25368.7 25877.6 26337.8 26747.8 27105.7 27409
          27655.1 27841.8 27967.3 28030.4 20168.1 20845.7 21574.5 22307.4 23018 23693.3 24327.6 24919.8
          25470.4 25980.7 26451.2 26882 27272.3 27620.6 27924.8 28182.8 28392.2 28551.2 28658.1 28711.9
          22447.9 22920.5 23451.8 24006 24559.7 25098.8 25615.3 26104.9 26565.4 26995.7 27394.7 27761.4
          28094.5 28392.1 28652.3 28873.1 29052.4 29188.6 29280.2 29326.3 24271.6 24606.1 24998.4 25421.7
          25856.8 26290.2 26713.1 27120 27507.2 27871.9 28212.2 28526.3 28812.3 29068.4 29292.5 29482.8
          29637.4 29754.9 29833.9 29873.7 25736.3 25976.3 26270 26597.3 26942.5 27293.9 27642.9 27983.5
          28311.1 28622.3 28914.6 29185.6 29433.1 29655.1 29849.7 30015.1 30149.5 30251.7 30320.5 30355
          26911.2 27086.2 27309.4 27566.1 27843.5 28131.6 28422.5 28710.2 28989.9 29257.8 29511.1 29746.9
          29963 30157.4 30328 30473.1 30591.1 30680.9 30741.3 30771.7 27846.7 27976.7 28149.7 28354.5
          28581 28820.7 29066.4 29312.4 29554 29787.3 30009.2 30216.8 30407.6 30579.7 30730.9 30859.8
          30964.7 31044.4 31098.1 31125.1 28580 28678.9 28816.3 28983.4 29172.1 29375.2 29586.3 29800.1
          30012 30218.1 30415.3 30600.5 30771.4 30925.8 31061.8 31177.8 31272.3 31344.2 31392.6 31417
          29138.4 29216.1 29328.5 29468.8 29630.1 29806.3 29991.7 30181.3 30370.6 30556.1 30734.3 30902.5
          31058.1 31199 31323.3 31429.4 31516 31581.9 31626.2 31648.6 29541.6 29605.3 29701 29822.8
          29965.2 30122.5 30289.7 30461.9 30635.2 30805.7 30970.3 31126.1 31270.6 31401.7 31517.6 31616.5
          31697.3 31758.8 31800.3 31821.2 29803.3 29858.5 29943.8 30054.2 30184.6 30330 30485.4 30646.6
          30809.4 30970.3 31126 31273.8 31411.1 31535.8 31646.2 31740.5 31817.5 31876.2 31915.8 31935.7
          29932.1 29983.3 30063.6 30168.5 30293.1 30432.7 30582.5 30738.2 30896 31052.1 31203.4 31347.2
          31481 31602.6 31710.2 31802.2 31877.4 31934.7 31973.3 31992.8 12881.7 11931.5 11026.5 10179.7
          9410.46 8749.65 8247.03 7976.91 8032.71 8493.89 9360.73 10512.7 11784 13034.9 14173.4 15148.8
          15937 16529 16923 17119.6 12519.6 11562.6 10655.6 9812.78 9054.31 8411.03 7931.3 7687.2
          7771.29 8266.33 9175.93 10368.5 11671.1 12943.5 14096.3 15081.1 15875.5 16471.7 16868.3 17066
          11779 10807 9894.84 9060.08 8325.54 7723.24 7300.36 7125.14 7284.81 7858.5 8847.66 10108
          11461.3 12769.4 13946.8 14948.7 15755.1 16359.4 16760.9 16961.2 10625.3 9626.18 8702.51 7878.33
          7182.32 6650.5 6330.88 6287.23 6594.02 7308.3 8409.27 9752.77 11167.1 12519.9 13730.1 14756
          15579.8 16196.1 16605.3 16809.2 9002.9 7956.29 7006.82 6189.51 5543.11 5110.61 4942.18 5095.36
          5624.1 6548.88 7814.3 9276.55 10776.1 12191.1 13447.1 14506.7 15354.7 15988 16407.9 16617.1
          6830.37 5700.38 4694.81 3866.66 3270.34 2958.34 2983.5 3396.66 4227.96 5453.16 6970.25 8622.53
          10259.1 11771.3 13096.3 14204.7 15087.2 15743.8 16178.3 16394.4 3995.04 2716.95 1594.81 711.525
          146.048 -38.0973 215.673 957.301 2199.15 3863.83 5773.21 7731.3 9587.6 11251.5 12679.7 13858.1
          14787.9 15475.7 15929.2 16154.4 346.216 -1197.33 -2552.82 -3584.46 -4172.14 -4243.66 -3738.73 -2584.89
          -760.295 1587.42 4121.24 6559.77 8750.69 10636.5 12209.5 13482.3 14473.6 15201 15678.2 15914.5
          -4311.21 -6334.56 -8146.85 -9511.43 -10229.7 -10241.9 -9491.95 -7819.1 -5107.84 -1614.8 1933.73 5103.07
          7770.41 9954.84 11713.7 13103.3 14168.6 14942.4 15447.1 15696.3 -10221.9 -13119.7 -15821.7 -17879.1
          -18910.3 -18956 -18016.9 -15668.2 -11487.9 -5949.98 -770.858 3439.91 6722.87 9266.76 11238.9 12758.2
          13904.1 14727.9 15261.8 15524.4 -17686.6 -22197.6 -26661 -30128.5 -31662.9 -31717.6 -30570.5 -27098.3
          -20257 -11169.5 -3664.65 1807.52 5758.01 8666.9 10848.4 12493.1 13716.4 14588 15149.8 15425.4
          -27087.7 -34643.6 -42789.9 -49266.2 -50922 -49804.8 -47225.7 -40511.2 -28846.6 -15479.9 -5841.4 631.163
          5083.9 8267.84 10610.9 12355.3 13641.5 14552.7 15137.8 15424.3 -38968.1 -52500.5 -69328.3 -83640.6
          -81148 -72088 -61118.5 -44711 -29170.8 -15841.2 -6276.81 286.599 4865.36 8157.61 10581.9 12383.9
          13709.7 14646.9 15247.7 15541.6 -54121.5 -79782.5 -120502 -163322 -130809 -92226.3 -64444.9 -42562.5
          -26344.5 -14230 -5524.45 657.511 5102.26 8361.55 10788.4 12602.5 13940.5 14887.3 15494.3 15791.2
          -73210.2 -121516 -224079 -270074 -191748 -100638 -61011.6 -38016.7 -22736.7 -11922.5 -4130.49 1543.78
          5732.57 8867.55 11234.3 13019 14342.1 15280.9 15883.8 16178.8 -95126.3 -163682 -244883 -218871
          -129083 -78288.1 -49945 -31394.9 -18464.3 -9137.73 -2278.54 2838.76 6704.51 9652.9 11910.4 13629.4
          14912.1 15825.9 16414.1 16702.3 -125640 -223287 -217200 -134241 -84303.5 -55476.9 -36968.9 -23620.7
          -13542.7 -5873.88 -14.5428 4490.96 7978.74 10690.8 12798 14419.9 15639.2 16512.3 17075.9 17352.5
          -176359 -230601 -144330 -87226.6 -56440.6 -38000.5 -25434.1 -15919.4 -8339.5 -2266 2580.55 6438.82
          9508.21 11945.8 13870.2 15368.9 16505.2 17323.6 17853.9 18114.7 -271385 -206383 -101356 -58833.9
          -37665.2 -24861.6 -15913 -8978.12 -3289.72 1440.72 5361.01 8588.27 11227.6 13370.1 15090.3 16447.3
          17485.7 18238.5 18728.4 18969.9 -269601 -137130 -66129.2 -38276.8 -23818.5 -14700.2 -8140.91 -2964.68
          1355.14 5035.53 8173.77 10831.1 13059.5 14906.7 16415 17620.3 18551.8 19231.9 19676.6 19896.4
          -260451 -85460.9 -41021.5 -23170.3 -13255.2 -6667.19 -1767.53 2172.77 5504.61 8388.85 10897.8 13068.6
          14927.2 16496.5 17798 18851.1 19672.8 20277 20674.1 20870.9 -76462.3 -40751.7 -22130.3 -11696.5
          -4995.55 -205.629 3502.01 6548.42 9156.88 11441 13455.4 15225.6 16765.7 18085.8 19195.4 20103.3
          20818.2 21347.4 21696.8 21870.5 -30709 -18492.1 -9409.82 -3070.44 1530.03 5054.61 7894.1 10280.1
          12349.1 14178 15806.5 17253.4 18527 19631.5 20569.9 21345.1 21960.3 22418.5 22722.3 22873.7
          -11984.1 -5839.67 -624.925 3490.39 6744.2 9381.02 11582.2 13472 15131.6 16610.9 17937.8 19125.7
          20180.1 21102.5 21892.6 22550.3 23075.6 23468.9 23730.6 23861.3 -1124.75 2487.91 5788.88 8603.4
          10969.8 12974.9 14700.5 16211.8 17555.4 18762.6 19851.9 20832.7 21708.4 22479.1 23143.4 23699.5
          24145.9 24481.5 24705.5 24817.6 6214.85 8485.39 10690.1 12683.3 14441.6 15987.1 17353.1 18571.3
          19667.5 20660 21560.5 22374.9 23105.2 23750.7 24309.5 24779.2 25157.7 25443.1 25634.1 25729.9
          11540.6 13029 14552.8 15998.6 17326.3 18530.6 19620.3 20608.9 21508.7 22329.9 23078.9 23758.9
          24370.6 24913.1 25384.2 25781.3 26102.2 26344.8 26507.4 26588.9 15572.6 16580.4 17660.3 18728.1
          19743.1 20689.6 21564.7 22371.3 23113.9 23796.9 24423.2 24994 25508.9 25966.7 26365.1 26701.7
          26974.2 27180.5 27318.9 27388.4 18715.8 19415.2 20195.3 20995.1 21779 22528.5 23235.2 23896.5
          24512.2 25083 25609.3 26090.7 26526.4 26914.4 27252.7 27539 27771 27946.9 28065 28124.4
          21215.9 21710 22282.3 22888.4 23499.1 24096.5 24670.3 25215.1 25727.9 26207.2 26651.5 27059.7
          27430.1 27760.6 28049.3 28293.9 28492.3 28642.8 28744 28794.8 23230 23583.9 24009 24473.2
          24953 25432.4 25901 26352.1 26781.3 27185.6 27562.8 27910.7 28227.3 28510.5 28758.1 28968.2
          29138.8 29268.3 29355.3 29399.1 24863.8 25120.1 25439.7 25798.9 26179.2 26566.9 26952.1 27327.9
          27689.2 28032.3 28354.3 28652.7 28925 29169.1 29383 29564.6 29712.2 29824.3 29899.7 29937.6
          26191.3 26379.3 26622.6 26903.8 27208.3 27524.7 27843.9 28159.3 28465.7 28758.9 29035.8 29293.5
          29529.5 29741.6 29927.6 30085.8 30214.5 30312.3 30378.1 30411.2 27266.8 27406.4 27594.3 27817.5
          28064.4 28325.5 28592.8 28860.1 29122.3 29375.2 29615.4 29840 30046.4 30232.3 30395.7 30534.8
          30648.1 30734.2 30792.1 30821.3 28130.2 28235.7 28383.4 28563.5 28766.9 28985.5 29212.3 29441.7
          29668.8 29889.4 30100.1 30298.1 30480.6 30645.4 30790.5 30914.2 31015 31091.7 31143.3 31169.3
          28811.5 28892.9 29011.7 29160.2 29331.1 29517.4 29713.3 29913.3 30112.9 30308.2 30495.7 30672.6
          30836.2 30984.3 31115 31226.5 31317.4 31386.7 31433.3 31456.8 29333 29397.8 29496.1 29621.9
          29769 29931.6 30104.2 30282.1 30461 30637 30806.8 30967.6 31116.7 31252 31371.6 31473.7
          31557.1 31620.6 31663.4 31685 29711 29764.7 29849.1 29959.2 30089.8 30235.6 30391.9 30554
          30717.9 30880 31037 31186.1 31324.7 31450.8 31562.3 31657.6 31735.5 31794.9 31834.9 31855.1
          29957.1 30004 30079.7 30180 30300.1 30435.3 30581 30733 30887.3 31040.4 31189 31330.5
          31462.3 31582.3 31688.6 31779.5 31853.8 31910.5 31948.7 31968 30078.3 30122 30193.6 30289.2
          30404.2 30534.2 30674.8 30821.8 30971.4 31120 31264.6 31402.4 31530.8 31647.8 31751.4 31840.2
          31912.8 31968.1 32005.5 32024.2 11901.1 10789 9676.07 8565.75 7469.14 6414.87 5466.74 4748.24
          4457.12 4816.86 5902.62 7469.11 9194.39 10847.9 12307.8 13524.8 14486.9 15197.8 15665.5 15897.4
          11529.8 10412.6 9298.38 8191.63 7103.76 6061.94 5125.69 4412.54 4121.21 4499.29 5655.91 7297.38
          9074.98 10758.7 12234.9 13460.7 14427.8 15141.6 15611 15843.6 10770.1 9642.14 8525.39 7427.68
          6363.37 5360.83 4477.22 3823.26 3591.28 4039.24 5306 7042.88 8882.92 10603 12100 13338.2
          14313 15031.9 15504.4 15738.6 9586 8439.36 7317.04 6234.18 5213.37 4291.41 3532.47 3048.39
          3016 3645.4 5008.06 6793.2 8661.98 10402.2 11914.4 13164.3 14148.2 14873.7 15350.7 15587.1
          7919 6739.9 5602.51 4534.18 3571.65 2766.9 2197.48 1977.32 2252.59 3150.2 4651.59 6493.93
          8390.06 10149.6 11678.6 12943.1 13939.1 14673.8 15157.1 15396.6 5682.79 4445.5 3268.94 2198.46
          1290.63 617.23 272.96 375.229 1036.27 2295.52 4042.55 6027.99 8007.54 9820.09 11385.8 12677.2
          13692.8 14441.6 14934 15178.1 2756.94 1412.93 145.071 -975.924 -1868.02 -2435.98 -2560.14 -2101.55
          -959.592 822.022 3001.65 5287.84 7459.28 9391.33 11032.4 12372.5 13420.4 14190.6 14696.1 14946.5
          -1020.16 -2562.19 -4025.73 -5304.33 -6285.48 -6850.82 -6837.23 -6020.41 -4228.59 -1586.87 1362.65 4198.41
          6718.66 8861.18 10628.1 12044.7 13140.2 13940.1 14463.3 14722.1 -5857.52 -7770.43 -9633.01 -11287.1
          -12590.5 -13428.3 -13567.7 -12509 -9731.74 -5419.9 -1041.04 2732.74 5804.63 8259.7 10203.8 11723.1
          12879.8 13716.7 14261.4 14530.1 -12013.7 -14630.7 -17290.7 -19751.1 -21857.4 -23642.7 -24843.9 -24108.1
          -19608.5 -11418.5 -4300.78 968.31 4807.76 7659.19 9814.68 11451.4 12676.1 13553.3 14120.9 14400.1
          -19792.7 -23775.1 -28044.3 -32162.8 -35947.8 -40163.8 -45078.4 -46521.1 -38236.7 -20015.2 -8054.32 -779.765
          3923.34 7177.59 9536.66 11283.7 12571.4 13485.5 14074.2 14363 -29540.8 -36257.4 -43958.3 -51526.1
          -57971.2 -66605.3 -80749.2 -85028 -62880.9 -27526.4 -10634.5 -1838.79 3440.56 6956.84 9451.25 11274.1
          12606.4 13547.1 14151 14446.7 -41673.2 -54096.2 -70101.1 -86014.3 -92403.5 -99554.1 -106606 -73454.9
          -46050.8 -23264.5 -9653.9 -1572.41 3579.86 7098.48 9617.54 11463 12811.6 13763 14373.1 14671.7
          -56762.3 -81453.9 -121294 -165536 -142248 -111515 -82578.5 -53140.6 -32493.3 -17422.3 -7238.26 -428.552
          4258.49 7601.58 10051 11866.8 13201.4 14145.3 14751.2 15047.7 -75632.4 -125607 -232671 -270097
          -178801 -98884.1 -62173.8 -39133 -23614.1 -12513 -4557.93 1159.14 5325.99 8415.7 10735.4 12480.3
          13773.7 14692.6 15283.7 15573.4 -99893.2 -190488 -326380 -237336 -122705 -72137.1 -45649.8 -28740.2
          -16938.4 -8291.6 -1845.6 3000.81 6675.96 9484.98 11639.6 13283.8 14513.7 15392.3 15959.3 16237.5
          -142586 -273203 -294312 -157857 -82793.9 -50596.2 -32410.7 -20168.5 -11197 -4366.36 914.749 5026.14
          8240.65 10759 12727.1 14249.2 15398.5 16224.3 16759.1 17022.1 -201256 -271138 -199514 -95680.8
          -54684.2 -34282 -21704.5 -12790.5 -5975.08 -587.255 3723.61 7184.84 9963.97 12189.2 13958.3 15344.3
          16400.3 17163.9 17660.4 17905 -287248 -281630 -120924 -60155 -35368 -21859.4 -12974.6 -6403.71
          -1206.26 3034.14 6530.15 9415.25 11788 13726.3 15292.2 16534.2 17489.3 18184.5 18638.3 18862.4
          -161232 -119728 -62790.8 -35588.1 -21155.5 -12154.6 -5795.97 -893.791 3098.25 6439.88 9263.92 11649.6
          13653.5 15320.3 16687.2 17784.2 18635.5 19259 19667.9 19870.3 -86567.7 -56738.3 -33450.9 -19479.8
          -10632.3 -4488.87 136.189 3841.18 6936.37 9582.16 11862.9 13826.8 15505.8 16924.7 18104 19060.9
          19809.7 20361.7 20725.2 20905.6 -37952.5 -26705.6 -16120 -8331.43 -2660.48 1642.01 5065.21 7903.3
          10328.4 12437.8 14285 15899.7 17300.4 18499.7 19508 20334.2 20985.8 21468.9 21788.3 21947.2
          -15817 -10555 -4992.81 -287.911 3512.81 6607.34 9186.35 11389.6 13310.1 15005.2 16508.4 17838.1
          19004.6 20014.1 20871 21578.9 22141 22560 22838 22976.7 -3723.45 -672.315 2668.56 5734.15
          8393.93 10678.3 12655 14387.3 15923.6 17296.9 18527.2 19625.6 20597.7 21446 22171.7 22775.2
          23257.1 23617.9 23858.1 23978.1 4121.02 6091.49 8284.64 10400.8 12330.1 14055.1 15593.5 16971.2
          18211.7 19332.8 20345.7 21256.9 22068.8 22781.8 23395.4 23908.5 24320 24629.3 24835.7 24939
          9750.75 11086 12602.3 14121 15558.4 16885 18097.8 19204.3 20214.1 21135.6 21974.5 22733.7
          23413.9 24014.3 24533.3 24969 25319.8 25584.2 25761 25849.6 14019.1 14949 16030.9 17149.7
          18241.5 19276.1 20242.3 21138.3 21966 22728.2 23426.8 24062.4 24634.3 25141.2 25580.8 25951.1
          26250.1 26475.9 26627.2 26703 17362.6 18023.3 18812.1 19651.5 20492.7 21308.5 22084.8 22815.4
          23498 24132 24716.6 25251.2 25734.1 26163.3 26536.8 26852.1 27107.2 27300.1 27429.6 27494.6
          20038.4 20515 21099.4 21737.9 22393.4 23042.3 23670.6 24270 24836.1 25366 25857.8 26309.4
          26718.9 27083.9 27402.2 27671.4 27889.6 28054.9 28165.9 28221.6 22210.5 22558.2 22996.7 23487.9
          24003.5 24523.8 25035.5 25530.1 26002 26447.3 26862.9 27246.4 27595.2 27907 28179.4 28410.2
          28597.5 28739.5 28835 28882.9 23988.8 24244.9 24577.4 24959.1 25368.2 25788.5 26208.1 26618.7
          27014.2 27390.4 27743.5 28070.8 28369.6 28637.2 28871.6 29070.5 29232 29354.6 29437 29478.5
          25450.6 25640.8 25895.5 26195.1 26522.6 26864.8 27211.4 27554.5 27888.2 28207.8 28509.8 28790.8
          29048.2 29279.5 29482.3 29654.6 29794.8 29901.2 29972.9 30008.9 26651.7 26794.2 26991.5 27229.2
          27494.1 27775.4 28064 28353 28636.7 28910.4 29170.5 29413.6 29637 29838.2 30015 30165.5
          30288 30381.1 30443.8 30475.3 27633.8 27741.6 27896.6 28087.6 28304.5 28538.3 28781.3 29027.1
          29270.6 29507.1 29733.1 29945.3 30141 30317.6 30473.2 30605.8 30713.8 30795.9 30851.3 30879.1
          28428.2 28511.1 28634.7 28790.7 28971 29168.1 29375.4 29587.3 29798.7 30005.5 30204.1 30391.4
          30564.7 30721.6 30859.9 30978 31074.3 31147.6 31197 31221.9 29059 29123.9 29224.7 29354.7
          29507.5 29676.6 29856.5 30041.9 30228.3 30411.8 30588.9 30756.5 30912 31053.2 31177.9 31284.5
          31371.5 31437.8 31482.5 31505 29544.2 29596.5 29680.9 29792.1 29924.6 30073.1 30232.4 30397.8
          30565.3 30731 30891.6 31044.2 31186.2 31315.2 31429.5 31527.2 31607.1 31668 31709.1 31729.7
          29897.3 29941.1 30014.3 30112.4 30230.7 30364.5 30509.1 30660.4 30814.2 30967.1 31115.8 31257.5
          31389.6 31509.9 31616.5 31707.9 31782.6 31839.5 31877.9 31897.3 30127.7 30166.2 30232.3 30322.2
          30431.5 30555.9 30691.2 30833.3 30978.4 31122.9 31263.9 31398.4 31524.1 31638.7 31740.4 31827.6
          31898.9 31953.3 31990 32008.5 30241.4 30277.4 30340.2 30426 30531 30650.9 30781.6 30919.1
          31059.9 31200.4 31337.5 31468.6 31591.1 31702.9 31802.1 31887.2 31956.9 32010 32045.9 32064
          10901.9 9601.23 8239.47 6801.1 5273.88 3662.3 2020.07 516.277 -471.888 -368.539 1163.02 3517.94
          6019.52 8295.23 10211.3 11749 12930.4 13785.8 14341.1 14614.3 10519 9214.37 7851.2 6414.23
          4889.55 3275 1608.05 31.8345 -1083 -1055.25 669.461 3232.44 5859.81 8195.7 10137.4 11685.5
          12871.1 13728.3 14284.4 14557.9 9735.36 8423.3 7059.14 5630.51 4125.48 2540.02 900.334 -676.753
          -1847 -1859.58 130.885 2917.15 5662.79 8050.53 10012.9 11569 12757.9 13616.8 14173.9 14448
          8512.53 7189.53 5825.72 4417.16 2963.68 1477.45 6.75327 -1306.17 -2114.36 -1787.17 173.233 2870.27
          5557.19 7914.4 9862.22 11411.9 12598.7 13457.5 14015.2 14289.6 6786.83 5446.58 4080.46 2699.35
          1324.54 -1.28175 -1190.06 -2066.45 -2320.78 -1550.59 398.758 2936.69 5493.24 7775.08 9685.67 11219.1
          12400.1 13257.7 13816 14091.2 4462.16 3090.79 1707.44 343.676 -951.192 -2097.7 -2965.73 -3356.63
          -3020.06 -1762.04 342.331 2852.56 5345.71 7580.99 9466.64 10989.8 12168.4 13027.4 13587.8 13864.4
          1400.77 -31.3804 -1471.92 -2863.59 -4125.7 -5139.79 -5727.85 -5652.3 -4689.65 -2802.45 -285.393 2430.97
          5013.51 7287.05 9191.49 10726.5 11914.4 12780.8 13346.9 13626.5 -2588.09 -4142.37 -5727.93 -7258.84
          -8625.97 -9675.04 -10155.9 -9705.03 -7988.11 -5062.8 -1688.35 1570.16 4451.72 6880.69 8865.6 10444.1
          11657.5 12540.1 13116.3 13400.9 -7759.45 -9562.41 -11475.6 -13387.9 -15190.1 -16735.8 -17669.9 -17224.5
          -14456.5 -9252.6 -4083.19 237.609 3680.57 6393.91 8522.39 10175.5 11429.9 12336.6 12927 13218.4
          -14437 -16758.4 -19380.4 -22189.6 -25200.9 -28553.7 -31985.6 -33451.4 -29311.8 -16906.8 -7682.15 -1484.23
          2807.19 5911.46 8226.15 9972.07 11275.7 12210.3 12816.6 13115.4 -22994.2 -26437.4 -30603.4 -35420.8
          -41456.7 -50613.4 -65792 -80647.5 -81071.3 -30921.9 -12255.5 -3230.22 2063.74 5572.36 8066.43 9898.24
          11246.2 12205.2 12825.1 13130.2 -33790.3 -39781.1 -47536.2 -56853.6 -69848.5 -96792.6 -176378 -264669
          -233609 -47817.7 -15478.9 -4126.33 1801.81 5542.59 8137.29 10017.1 11389.4 12361.4 12988.2 13296.3
          -47067.7 -59182.8 -76776.2 -96908.2 -121671 -177815 -272013 -133234 -73601 -31220.8 -12620.6 -3245.29
          2288.22 5933.87 8501.46 10370.9 11737.4 12704.9 13328.5 13634.9 -62943.2 -90604.4 -143968 -193724
          -208355 -180102 -123289 -67588.8 -38861.3 -20134.3 -8652.79 -1436.03 3361.82 6722.19 9163.37 10968.6
          12297.9 13242.1 13851.2 14150.5 -81528.6 -146980 -300104 -268840 -220441 -116113 -69271.3 -41577
          -24626.8 -13034.3 -4969.91 713.733 4808.27 7826.1 10087.3 11789.9 13056.2 13960.1 14544.4 14831.7
          -99787.6 -200453 -271025 -281080 -132659 -73513.1 -44888.4 -27642.6 -16093.2 -7781 -1627.73 2987.06
          6485.66 9162.9 11221.4 12797.8 13982.3 14832.8 15384 15655.4 -125078 -279465 -287732 -168315
          -83049.2 -48370.5 -29948.8 -18118.9 -9705.48 -3378.07 1504.75 5316.03 8308.22 10663 12512.1 13949.4
          15040 15827.6 16339.8 16592.3 -172776 -282588 -225829 -98993.2 -52756.4 -31528.5 -19129.2 -10666.2
          -4357.03 569.498 4500.15 7663.39 10214.6 12268.1 13909.3 15201.9 16191.8 16911 17380.3 17612.1
          -258607 -268493 -115089 -56741.5 -32311.6 -19140.5 -10638.4 -4472.4 321.588 4190.57 7366.87 9989.25
          12152.5 13927.2 15367.8 16515.9 17402.9 18051 18475.6 18685.7 -88261.4 -86005.1 -52061 -30620.5
          -17920.6 -9664.81 -3759.93 785.807 4460.19 7513.64 10083.1 12251.4 14075 15596.1 16847.9 17856.4
          18641.9 19219.3 19598.8 19787 -41092.6 -36116.3 -24644.1 -14898.5 -7689.7 -2307.85 1880.22 5276.86
          8118.51 10540.9 12622.7 14412.4 15942.6 17237.5 18316 19193.5 19882.1 20391 20726.8 20893.7
          -18675.5 -15445.8 -9953.56 -4642.07 -170.646 3499.15 6544.25 9121.53 11341.6 13275.5 14967.4 16444.5
          17725 18821.8 19745 20502.6 21101.2 21545.8 21840.2 21986.8 -5897.31 -3832.41 -678.044 2584.51
          5559 8164.9 10433.6 12420.2 14173.4 15728.7 17109.5 18330.5 19401.1 20327.4 21114 21764.3
          22281.1 22666.8 22923 23050.8 2346.59 3767.52 5797.7 7974.11 10061.8 11976.3 13704.1 15258.4
          16657.7 17917.9 19050.6 20062.7 20958.4 21739.8 22408.2 22964.2 23408.3 23741.1 23962.7 24073.5
          8201.32 9224.36 10627.7 12164.4 13689.5 15134.7 16475.5 17707.8 18835.6 19864.4 20798.6 21640.6
          22391.3 23050.7 23618 24092.3 24472.8 24758.8 24949.8 25045.4 12632.6 13383.8 14395.7 15522.2
          16668.8 17783 18839.4 19827.6 20744.7 21590.5 22365.1 23068.4 23699.3 24256.5 24738.1 25142.5
          25468 25713.3 25877.4 25959.7 16119.1 16676.2 17424.5 18271.1 19150.9 20023.7 20866.2 21666.4
          22417.9 23117.6 23763.4 24353.3 24885.2 25357.1 25766.6 26111.5 26389.9 26600.2 26741.1 26811.7
          18928.5 19344.6 19907.2 20554.4 21239.6 21931.6 22610.3 23263.4 23883.5 24465.7 25006.8 25503.7
          25953.9 26354.7 26703.6 26998.3 27236.7 27417.1 27538.1 27598.8 21227.2 21539.6 21967.9 22468.8
          23008.6 23562.7 24113.9 24650.7 25165.5 25652.7 26108.2 26528.8 26911.2 27252.9 27551.1 27803.6
          28008.2 28163.2 28267.3 28319.6 23126.2 23361.9 23690.9 24082.7 24512 24959.3 25410.2 25854.4
          26284.2 26694.1 27079.7 27437.2 27763.7 28056.1 28312 28529.1 28705.2 28838.9 28928.7 28973.8
          24703.2 24881.8 25136.7 25445.9 25790.2 26154.2 26525.8 26895.7 27256.9 27603.7 27931.7 28237.4
          28517.4 28769 28989.6 29177.1 29329.4 29445.1 29522.9 29562 26014.9 26150.7 26349.9 26596.1
          26874.7 27173.4 27482 27792.2 28097.6 28393 28673.9 28936.8 29178.5 29396.2 29587.5 29750.3
          29882.8 29983.5 30051.3 30085.4 27103.2 27207.2 27364.2 27562.2 27790 28037.4 28295.8 28558.2
          28818.6 29072.1 29314.5 29542.2 29752.4 29942.1 30109.2 30251.7 30367.7 30455.9 30515.4 30545.3
          28000.3 28080.5 28205.8 28367.1 28555.4 28762.7 28981.5 29205.7 29429.8 29649.4 29860.4 30059.6
          30243.9 30410.8 30558 30683.7 30786.2 30864.2 30916.8 30943.3 28731 28793.7 28895.2 29028.5
          29186.5 29362.5 29550.2 29744.2 29939.5 30132 30317.9 30493.9 30657.4 30805.8 30936.9 31049
          31140.6 31210.3 31257.3 31281 29314.4 29364.2 29448.1 29560.5 29695.5 29847.6 30011.3 30181.8
          30354.5 30525.7 30691.7 30849.5 30996.5 31130.2 31248.6 31349.9 31432.7 31495.9 31538.4 31559.9
          29765.2 29805.8 29876.9 29973.9 30092 30226.2 30371.9 30524.6 30680.3 30835.2 30986 31129.9
          31264.2 31386.6 31495.2 31588.2 31664.3 31722.4 31761.6 31781.3 30094.3 30128.7 30190.9 30277.2
          30383.3 30504.8 30637.7 30777.7 30921 31064.2 31204.1 31337.8 31462.9 31577.1 31678.5 31765.6
          31836.8 31891.2 31927.9 31946.3 30309.5 30340 30396.6 30476.1 30574.6 30688.1 30812.6 30944.4
          31079.8 31215.4 31348.1 31475.3 31594.4 31703.3 31800 31883.1 31951.2 32003.1 32038.2 32055.9
          30415.9 30444.5 30498.5 30574.6 30669.4 30778.9 30899.5 31027.2 31158.7 31290.5 31419.8 31543.7
          31659.8 31766.1 31860.6 31941.7 32008.2 32058.9 32093.2 32110.5 9910.72 8398.35 6751.02 4922.45
          2855.04 488.987 -2197.14 -5057.61 -7476.72 -8051.62 -5523.62 -1626.71 2183.93 5384.31 7914.77 9854.02
          11296.2 12317.5 12971 13290 9514.79 7998.08 6347.07 4513.72 2433.51 25.2526 -2788.19 -5975.65
          -9034.33 -10204.4 -6886.25 -2270.73 1899.37 5245.02 7828.1 9784.83 11232.3 12254.8 12908.7 13227.6
          8704.19 7180.9 5527.1 3695.95 1620.66 -794.212 -3674.22 -7117.76 -10861.2 -13025.4 -8360.84 -2896.63
          1617.31 5081.56 7700.24 9665.11 11112.9 12134.3 12787.2 13105.8 7438.03 5908.46 4257.91 2449.09
          431.491 -1860.49 -4491.28 -7428.11 -10184 -11017 -7336.26 -2537.41 1682.62 5020.48 7580.64 9516.33
          10949.2 11963.2 12612.7 12930 5646.48 4111.92 2470.67 704.537 -1203.34 -3257.72 -5415.03 -7482.65
          -8903.63 -8575.16 -5635.8 -1722.95 1965.75 5037.2 7469.84 9344.73 10748.7 11749.5 12393.4 12708.8
          3220.68 1680.21 46.1925 -1672.86 -3450.62 -5223.17 -6848.9 -8046.14 -8341.78 -7184.06 -4464.78 -1078.39
          2201.95 5031.52 7335.1 9144.41 10516.5 11502.9 12141.2 12454.9 -1.97071 -1556.16 -3204.03 -4905.12
          -6586.67 -8118.1 -9273.91 -9717.81 -9071.18 -7140.73 -4202.26 -909.546 2214.89 4921.56 7147.03 8912.04
          10261.6 11238.4 11873.8 12187 -4259.08 -5849.96 -7570.2 -9343.93 -11054 -12503.6 -13362.3 -13185.5
          -11583.6 -8596.96 -4943.57 -1305.47 1944.89 4681.22 6903.97 8660.47 10004.8 10980.8 11618 11933