# vtk DataFile Version 3.0
model R-SWMS
ASCII
DATASET RECTILINEAR_GRID
DIMENSIONS      21    21    21
X_COORDINATES      21 float
 -5.0000E+00 -4.5000E+00 -4.0000E+00 -3.5000E+00 -3.0000E+00 -2.5000E+00 -2.0000E+00 -1.5000E+00 -1.0000E+00 -5.0000E-01  0.0000E+00  5.0000E-01  1.0000E+00  1.5000E+00  2.0000E+00  2.5000E+00  3.0000E+00  3.5000E+00  4.0000E+00  4.5000E+00  5.0000E+00
Y_COORDINATES      21 float
-5.0000E+00-4.5000E+00-4.0000E+00-3.5000E+00-3.0000E+00-2.5000E+00-2.0000E+00-1.5000E+00-1.0000E+00-5.0000E-01 0.0000E+00 5.0000E-01 1.0000E+00 1.5000E+00 2.0000E+00 2.5000E+00 3.0000E+00 3.5000E+00 4.0000E+00 4.5000E+00 5.0000E+00
Z_COORDINATES      21 float
 0.0000E+00-5.0000E-01-1.0000E+00-1.5000E+00-2.0000E+00-2.5000E+00-3.0000E+00-3.5000E+00-4.0000E+00-4.5000E+00-5.0000E+00-5.5000E+00-6.0000E+00-6.5000E+00-7.0000E+00-7.5000E+00-8.0000E+00-8.5000E+00-9.0000E+00-9.5000E+00-1.0000E+01
     POINT_DATA    9261
SCALARS velocity float 3
LOOKUP_TABLE default
  4.2796E-04  2.0739E-04  2.4815E-04
  8.6790E-04  1.6303E-04  2.9729E-04
  1.7016E-03  2.5832E-04  2.4754E-04
  2.3829E-03  2.7809E-04  2.8768E-04
  2.9593E-03  4.2790E-04  2.3852E-04
  3.2120E-03  4.8899E-04  2.8764E-04
  3.2932E-03  6.9028E-04  2.2051E-04
  2.9527E-03  7.7651E-04  2.6842E-04
  2.4025E-03  9.8376E-04  1.9531E-04
  1.4666E-03  1.0448E-03  2.4922E-04
  3.9719E-04  1.1640E-03  1.7553E-04
 -7.5245E-04  1.1023E-03  2.5880E-04
 -1.8374E-03  1.0838E-03  1.9830E-04
 -2.5930E-03  8.9151E-04  2.8758E-04
 -3.1343E-03  7.9271E-04  2.4027E-04
 -3.1831E-03  5.6566E-04  3.1639E-04
 -3.0149E-03  4.8480E-04  2.7027E-04
 -2.4643E-03  3.0684E-04  3.3561E-04
 -1.7800E-03  2.8528E-04  2.8049E-04
 -9.1101E-04  1.7261E-04  3.3564E-04
 -4.5312E-04  2.1817E-04  2.8050E-04
  3.8360E-04  4.2196E-04  2.9729E-04
  9.0356E-04  4.6182E-04  2.4724E-04
  1.7357E-03  5.3223E-04  2.9728E-04
  2.4998E-03  6.8024E-04  2.4093E-04
  3.0252E-03  8.5818E-04  2.8766E-04
  3.3992E-03  1.1143E-03  2.2562E-04
  3.3795E-03  1.3901E-03  2.6844E-04
  3.1632E-03  1.7037E-03  1.9083E-04
  2.4827E-03  1.9890E-03  2.3964E-04
  1.5998E-03  2.2343E-03  1.5366E-04
  4.1695E-04  2.3675E-03  2.1087E-04
 -8.1353E-04  2.3627E-03  1.4438E-04
 -1.8979E-03  2.2046E-03  2.3005E-04
 -2.8090E-03  1.9385E-03  1.9082E-04
 -3.2307E-03  1.5962E-03  2.7801E-04
 -3.4029E-03  1.2817E-03  2.4268E-04
 -3.0922E-03  9.7319E-04  3.1641E-04
 -2.6036E-03  7.5541E-04  2.7298E-04
 -1.8220E-03  5.7535E-04  3.2603E-04
 -9.5626E-04  4.9117E-04  2.8020E-04
 -4.1236E-04  4.4592E-04  3.2605E-04
  4.8370E-04  8.2054E-04  2.4754E-04
  9.7817E-04  8.5350E-04  3.0688E-04
  1.9173E-03  1.0333E-03  2.4393E-04
  2.7089E-03  1.2753E-03  2.8767E-04
  3.3925E-03  1.6744E-03  2.2413E-04
  3.7439E-03  2.1284E-03  2.6845E-04
  3.8970E-03  2.7352E-03  1.7795E-04
  3.5515E-03  3.3359E-03  2.0130E-04
  2.9591E-03  3.9613E-03  1.0154E-04
  1.8450E-03  4.4520E-03  1.3418E-04
  5.3732E-04  4.7496E-03  2.4560E-05
 -9.1530E-04  4.7298E-03  1.0543E-04
 -2.2895E-03  4.4059E-03  5.3315E-05
 -3.2015E-03  3.8101E-03  1.7253E-04
 -3.8162E-03  3.1553E-03  1.5907E-04
 -3.8060E-03  2.4447E-03  2.6843E-04
 -3.5457E-03  1.8912E-03  2.4329E-04
 -2.8622E-03  1.3999E-03  3.1642E-04
 -2.0398E-03  1.1078E-03  2.7419E-04
 -1.0405E-03  8.9661E-04  3.3563E-04
 -5.1604E-04  8.5766E-04  2.7750E-04
  4.8908E-04  1.0741E-03  2.9728E-04
  1.1136E-03  1.1765E-03  2.4454E-04
  2.1576E-03  1.3713E-03  2.8768E-04
  3.1373E-03  1.7877E-03  2.2593E-04
  3.8783E-03  2.3011E-03  2.5887E-04
  4.4699E-03  3.0618E-03  1.6597E-04
  4.5868E-03  3.8823E-03  1.7255E-04
  4.4270E-03  4.8883E-03  4.9722E-05
  3.5988E-03  5.8079E-03  4.7920E-05
  2.4374E-03  6.6403E-03 -1.2189E-04
  6.9476E-04  7.0865E-03 -1.2458E-04
 -1.1832E-03  7.0839E-03 -2.4167E-04
 -2.8175E-03  6.4688E-03 -9.5834E-05
 -4.1260E-03  5.6002E-03 -8.6857E-05
 -4.5961E-03  4.4379E-03  1.0544E-04
 -4.6886E-03  3.4723E-03  1.3091E-04
 -4.1369E-03  2.5358E-03  2.5886E-04
 -3.3771E-03  1.9329E-03  2.4600E-04
 -2.3253E-03  1.4383E-03  3.2602E-04
 -1.2001E-03  1.2145E-03  2.7779E-04
 -5.3700E-04  1.0980E-03  3.2604E-04
  6.2991E-04  1.2340E-03  2.4513E-04
  1.2754E-03  1.2898E-03  2.9727E-04
  2.5186E-03  1.6064E-03  2.3043E-04
  3.6387E-03  2.0423E-03  2.5888E-04
  4.6612E-03  2.7947E-03  1.7197E-04
  5.3251E-03  3.6715E-03  1.7255E-04
  5.7539E-03  4.8865E-03  2.4561E-05
  5.4770E-03  6.1335E-03 -2.8751E-05
  4.7873E-03  7.5363E-03 -2.4166E-04
  3.1236E-03  8.6282E-03 -3.4494E-04
  1.0078E-03  9.3433E-03 -6.3654E-04
 -1.5330E-03  9.1547E-03 -6.4193E-04
 -3.8809E-03  8.3718E-03 -6.2671E-04
 -5.2322E-03  6.8517E-03 -3.5456E-04
 -5.9987E-03  5.4728E-03 -1.9018E-04
 -5.7081E-03  3.9923E-03  6.7098E-05
 -5.0698E-03  2.9907E-03  1.3631E-04
 -3.9597E-03  2.1189E-03  2.7804E-04
 -2.7402E-03  1.6345E-03  2.5319E-04
 -1.3808E-03  1.2801E-03  3.2602E-04
 -6.8202E-04  1.2214E-03  2.7688E-04
  6.6166E-04  1.1555E-03  3.0685E-04
  1.4752E-03  1.2900E-03  2.4122E-04
  2.9101E-03  1.5533E-03  2.7807E-04
  4.3022E-03  2.1414E-03  1.9205E-04
  5.5075E-03  2.8808E-03  1.9173E-04
  6.5608E-03  4.0633E-03  4.7028E-05
  7.0488E-03  5.3861E-03 -2.8751E-05
  7.1531E-03  7.1567E-03 -2.9046E-04
  6.0933E-03  8.8237E-03 -4.6945E-04
  4.3583E-03  1.0438E-02 -9.2172E-04
  1.2213E-03  1.1174E-02 -1.2261E-03
 -2.2777E-03  1.0925E-02 -1.4515E-03
 -5.1204E-03  9.3594E-03 -1.2549E-03
 -7.1442E-03  7.6005E-03 -8.6380E-04
 -7.4554E-03  5.5916E-03 -4.1206E-04
 -7.1473E-03  4.1612E-03 -1.3328E-04
 -6.0104E-03  2.8854E-03  1.3420E-04
 -4.6920E-03  2.1059E-03  1.8425E-04
 -3.1641E-03  1.4909E-03  2.9723E-04
 -1.5971E-03  1.2190E-03  2.6489E-04
 -7.1916E-04  1.0787E-03  3.3561E-04
  8.2106E-04  9.4212E-04  2.4812E-04
  1.6732E-03  1.0020E-03  2.9725E-04
  3.3430E-03  1.3450E-03  2.1843E-04
  4.9662E-03  1.8312E-03  2.3968E-04
  6.5445E-03  2.7353E-03  9.3763E-05
  7.8304E-03  3.8290E-03  2.8753E-05
  8.8626E-03  5.5447E-03 -2.4555E-04
  8.9146E-03  7.3913E-03 -4.7902E-04
  8.2573E-03  9.8036E-03 -1.0189E-03
  5.4732E-03  1.1689E-02 -1.4844E-03
  1.5250E-03  1.2711E-02 -2.1786E-03
 -3.3469E-03  1.1860E-02 -2.3270E-03
 -7.4672E-03  9.7496E-03 -1.8045E-03
 -8.9999E-03  7.1846E-03 -1.1400E-03
 -9.4418E-03  5.2139E-03 -5.8358E-04
 -8.4144E-03  3.5507E-03 -1.3417E-04
 -7.0641E-03  2.4925E-03  3.9240E-05
 -5.3542E-03  1.6489E-03  2.3008E-04
 -3.5921E-03  1.1862E-03  2.3640E-04
 -1.7930E-03  8.6775E-04  3.2600E-04
 -8.7615E-04  8.0784E-04  2.7447E-04
  8.5340E-04  4.6985E-04  3.0684E-04
  1.8593E-03  5.8281E-04  2.3762E-04
  3.7393E-03  8.0060E-04  2.6846E-04
  5.6359E-03  1.3200E-03  1.5459E-04
  7.5054E-03  1.9986E-03  1.1503E-04
  9.2985E-03  3.2231E-03 -1.3896E-04
  1.0611E-02  4.6709E-03 -3.6409E-04
  1.1490E-02  7.0743E-03 -9.4621E-04
  1.0390E-02  9.5092E-03 -1.5705E-03
  7.7159E-03  1.2679E-02 -2.6410E-03
  1.3929E-03  1.4029E-02 -3.2070E-03
 -5.6092E-03  1.2564E-02 -2.9322E-03
 -9.7956E-03  9.3647E-03 -2.0587E-03
 -1.1821E-02  6.4160E-03 -1.1649E-03
 -1.1089E-02  4.0717E-03 -4.5986E-04
 -9.8006E-03  2.6590E-03 -1.6560E-04
 -7.9123E-03  1.6055E-03  1.2460E-04
 -5.9490E-03  1.0126E-03  1.7975E-04
 -3.9453E-03  5.8005E-04  3.0680E-04
 -1.9602E-03  3.8832E-04  2.6907E-04
 -9.1090E-04  2.9245E-04  3.3559E-04
  9.7865E-04 -1.0008E-04  2.4631E-04
  2.0040E-03 -6.7120E-05  2.9724E-04
  4.0353E-03  1.1805E-04  2.0434E-04
  6.1643E-03  3.9306E-04  2.0132E-04
  8.3417E-03  9.6480E-04  1.4977E-06
  1.0503E-02  1.7010E-03 -1.7249E-04
  1.2553E-02  3.1484E-03 -7.0655E-04
  1.3753E-02  4.7935E-03 -1.3408E-03
  1.4137E-02  8.0666E-03 -2.6452E-03
  9.9925E-03  1.1323E-02 -4.3645E-03
  2.1738E-03  1.5628E-02 -4.8037E-03
 -8.0105E-03  1.5078E-02 -3.2444E-03
 -1.4596E-02  8.8760E-03 -1.9826E-03
 -1.4293E-02  4.5681E-03 -1.0247E-03
 -1.3054E-02  2.6105E-03 -4.9695E-04
 -1.0881E-02  1.2170E-03 -2.8747E-05
 -8.6244E-03  5.4812E-04  8.5064E-05
 -6.3797E-03  8.6277E-05  2.5883E-04
 -4.1849E-03 -1.3243E-04  2.4868E-04
 -2.0806E-03 -2.7806E-04  3.2600E-04
 -1.0134E-03 -3.0383E-04  2.7866E-04
  9.5889E-04 -8.0067E-04  3.0684E-04
  2.0595E-03 -7.9136E-04  2.3642E-04
  4.1995E-03 -7.6703E-04  2.6846E-04
  6.4135E-03 -6.8785E-04  1.3242E-04
  8.8134E-03 -5.6552E-04  6.7095E-05
  1.1297E-02 -2.4945E-04 -3.4229E-04
  1.3704E-02  1.7723E-04 -8.2388E-04
  1.5959E-02  1.2489E-03 -1.9079E-03
  1.6920E-02  2.5655E-03 -3.4367E-03
  1.6282E-02  7.0046E-03 -5.5112E-03
  5.1465E-03  1.3689E-02 -7.3753E-03
 -1.3799E-02  1.0053E-02 -3.0808E-03
 -2.0306E-02  3.9196E-03 -2.1919E-03
 -1.7218E-02  1.5330E-03 -1.3122E-03
 -1.4441E-02 -1.9159E-05 -4.2149E-04
 -1.1637E-02 -5.1835E-04 -1.2307E-04
 -9.0431E-03 -8.2907E-04  1.8211E-04
 -6.5694E-03 -9.2659E-04  2.0401E-04
 -4.3096E-03 -9.7794E-04  3.2598E-04
 -2.1208E-03 -9.9239E-04  2.7746E-04
 -9.8762E-04 -9.9721E-04  3.4519E-04
  9.9008E-04 -1.5151E-03  2.4692E-04
  2.0376E-03 -1.5390E-03  2.9726E-04
  4.1217E-03 -1.6719E-03  2.0794E-04
  6.3658E-03 -1.8551E-03  2.2050E-04
  8.7128E-03 -2.1918E-03 -9.2858E-06
  1.1246E-02 -2.5779E-03 -2.2041E-04
  1.3805E-02 -3.2229E-03 -9.1702E-04
  1.6142E-02 -3.8547E-03 -1.8100E-03
  1.8352E-02 -4.8766E-03 -3.4083E-03
  2.1118E-02 -5.0905E-03 -5.6551E-03
  6.2465E-03 -4.1766E-03 -2.8951E-03
 -1.7778E-02 -2.0232E-03 -4.1420E-03
 -2.2839E-02 -3.8816E-03 -1.9720E-03
 -1.8233E-02 -3.7347E-03 -1.1970E-03
 -1.4643E-02 -3.2167E-03 -5.5712E-04
 -1.1691E-02 -2.6688E-03 -2.8748E-05
 -8.9419E-03 -2.3085E-03  9.9145E-05
 -6.5286E-03 -2.0132E-03  2.7801E-04
 -4.2310E-03 -1.8400E-03  2.6097E-04
 -2.0999E-03 -1.7116E-03  3.3560E-04
 -1.0164E-03 -1.6876E-03  2.8287E-04
  8.8224E-04 -2.1289E-03  3.0687E-04
  1.9098E-03 -2.2340E-03  2.4063E-04
  3.8834E-03 -2.4403E-03  2.7807E-04
  5.9179E-03 -2.9284E-03  1.6599E-04
  8.0906E-03 -3.5516E-03  1.3420E-04
  1.0318E-02 -4.7024E-03 -1.8539E-04
  1.2427E-02 -6.0171E-03 -5.2698E-04
  1.4316E-02 -8.4604E-03 -1.2694E-03
  1.5684E-02 -1.0863E-02 -1.9629E-03
  1.6896E-02 -1.6086E-02 -2.9955E-03
  8.2137E-03 -2.0608E-02 -3.9418E-03
 -1.3883E-02 -1.7489E-02 -2.1467E-04
 -2.2019E-02 -1.1517E-02 -1.0531E-04
 -1.6147E-02 -8.6482E-03 -5.4802E-04
 -1.3375E-02 -6.0599E-03 -2.3952E-04
 -1.0748E-02 -4.7208E-03 -5.1212E-05
 -8.3875E-03 -3.6330E-03  1.9171E-04
 -6.1125E-03 -3.0410E-03  2.1392E-04
 -4.0080E-03 -2.5889E-03  3.2601E-04
 -1.9712E-03 -2.3847E-03  2.7928E-04
 -9.1098E-04 -2.2823E-03  3.4522E-04
  8.4033E-04 -2.6385E-03  2.4814E-04
  1.7262E-03 -2.7043E-03  3.0688E-04
  3.4668E-03 -3.0749E-03  2.2865E-04
  5.2544E-03 -3.6004E-03  2.5888E-04
  7.0572E-03 -4.6029E-03  1.2463E-04
  8.7800E-03 -5.8230E-03  6.7096E-05
  1.0356E-02 -7.9288E-03 -2.4497E-04
  1.1295E-02 -1.0208E-02 -4.6945E-04
  1.1785E-02 -1.4065E-02 -8.4106E-04
  1.1371E-02 -1.7920E-02 -7.9475E-04
  4.2961E-03 -2.3733E-02 -8.8699E-04
 -8.6880E-03 -2.4556E-02 -9.8608E-04
 -1.4439E-02 -1.6154E-02 -2.7354E-04
 -1.2775E-02 -1.0662E-02 -1.7244E-04
 -1.1106E-02 -8.0655E-03 -1.0241E-04
 -9.2637E-03 -5.9234E-03  1.0543E-04
 -7.3787E-03 -4.7076E-03  1.5878E-04
 -5.4844E-03 -3.7298E-03  2.8764E-04
 -3.6070E-03 -3.2132E-03  2.6040E-04
 -1.7933E-03 -2.8529E-03  3.3564E-04
 -8.7508E-04 -2.7895E-03  2.8050E-04
  6.7135E-04 -2.8820E-03  3.0690E-04
  1.4958E-03 -3.0393E-03  2.4426E-04
  2.9873E-03 -3.3469E-03  2.8770E-04
  4.4698E-03 -4.0395E-03  2.1636E-04
  5.8679E-03 -4.9282E-03  2.3970E-04
  7.1744E-03 -6.3996E-03  1.1624E-04
  8.0417E-03 -8.0992E-03  7.6679E-05
  8.5714E-03 -1.0632E-02 -1.2039E-04
  7.9714E-03 -1.3260E-02 -1.4372E-04
  6.6496E-03 -1.6987E-02 -1.8291E-04
  1.5804E-03 -2.0943E-02 -7.6627E-05
 -4.8121E-03 -1.9193E-02 -5.2264E-04
 -8.1241E-03 -1.4806E-02 -2.9699E-04
 -9.3293E-03 -1.1301E-02 -1.0091E-04
 -8.6355E-03 -8.4055E-03  7.6675E-05
 -7.6156E-03 -6.6079E-03  1.2282E-04
 -6.1937E-03 -5.1007E-03  2.5887E-04
 -4.6980E-03 -4.1994E-03  2.4032E-04
 -3.1311E-03 -3.5003E-03  3.1646E-04
 -1.5662E-03 -3.1888E-03  2.7213E-04
 -7.1929E-04 -3.0306E-03  3.2608E-04
  6.1565E-04 -2.9871E-03  2.4038E-04
  1.2612E-03 -3.0596E-03  2.9733E-04
  2.5062E-03 -3.4485E-03  2.3498E-04
  3.6730E-03 -3.9991E-03  2.7811E-04
  4.7787E-03 -4.9501E-03  2.1006E-04
  5.6090E-03 -6.0932E-03  2.3970E-04
  6.2247E-03 -7.7274E-03  1.3301E-04
  6.1345E-03 -9.5038E-03  1.3419E-04
  5.5991E-03 -1.1663E-02  2.1863E-05
  3.6894E-03 -1.3732E-02  3.8331E-05
  9.2768E-04 -1.4976E-02 -1.2038E-04
 -2.5537E-03 -1.4843E-02 -9.5824E-05
 -5.4164E-03 -1.2644E-02 -1.1800E-04
 -6.3739E-03 -1.0169E-02  2.8754E-05
 -6.6328E-03 -8.1690E-03  1.0155E-04
 -5.9587E-03 -6.3806E-03  2.3969E-04
 -5.0662E-03 -5.1777E-03  2.2864E-04
 -3.8839E-03 -4.1812E-03  3.0688E-04
 -2.6377E-03 -3.6106E-03  2.6165E-04
 -1.3236E-03 -3.2082E-03  3.2610E-04
 -6.4741E-04 -3.1315E-03  2.6856E-04
  4.5083E-04 -2.7961E-03  2.8776E-04
  1.0470E-03 -2.9348E-03  2.3230E-04
  2.0478E-03 -3.2036E-03  2.8775E-04
  3.0014E-03 -3.7693E-03  2.2779E-04
  3.7738E-03 -4.4786E-03  2.7812E-04
  4.4195E-03 -5.5192E-03  2.0617E-04
  4.6311E-03 -6.6926E-03  2.3971E-04
  4.5662E-03 -8.1183E-03  1.5549E-04
  3.7434E-03 -9.5431E-03  1.8214E-04
  2.5108E-03 -1.0772E-02  8.0279E-05
  4.6967E-04 -1.1603E-02  1.1502E-04
 -1.7400E-03 -1.1267E-02 -2.0968E-06
 -3.4509E-03 -1.0228E-02  8.6273E-05
 -4.6586E-03 -8.7127E-03  1.0066E-04
 -4.8467E-03 -7.1239E-03  2.2052E-04
 -4.6765E-03 -5.8511E-03  2.1875E-04
 -3.9942E-03 -4.7183E-03  3.0688E-04
 -3.1713E-03 -3.9607E-03  2.5446E-04
 -2.1581E-03 -3.3618E-03  3.0693E-04
 -1.1016E-03 -3.0775E-03  2.6168E-04
 -4.7960E-04 -2.9351E-03  3.1653E-04
  4.1488E-04 -2.4941E-03  2.2783E-04
  8.5373E-04 -2.5468E-03  2.7818E-04
  1.6843E-03 -2.8288E-03  2.2632E-04
  2.3979E-03 -3.2228E-03  2.7816E-04
  3.0350E-03 -3.8497E-03  2.2120E-04
  3.3950E-03 -4.5842E-03  2.6853E-04
  3.5772E-03 -5.5191E-03  2.0828E-04
  3.2842E-03 -6.4965E-03  2.3972E-04
  2.7383E-03 -7.4557E-03  1.7289E-04
  1.6299E-03 -8.2837E-03  2.2052E-04
  2.9481E-04 -8.6389E-03  1.3003E-04
 -1.1793E-03 -8.5904E-03  1.9175E-04
 -2.5162E-03 -7.9023E-03  1.4022E-04
 -3.2697E-03 -6.9422E-03  2.3972E-04
 -3.7057E-03 -5.8945E-03  2.1696E-04
 -3.5532E-03 -4.8719E-03  2.9730E-04
 -3.1920E-03 -4.0768E-03  2.5296E-04
 -2.5274E-03 -3.3955E-03  3.0693E-04
 -1.7716E-03 -2.9760E-03  2.5419E-04
 -8.9689E-04 -2.6763E-03  3.0696E-04
 -4.4126E-04 -2.6188E-03  2.5420E-04
  2.8779E-04 -1.9858E-03  2.7820E-04
  7.1588E-04 -2.0667E-03  2.2244E-04
  1.3718E-03 -2.2351E-03  2.6860E-04
  1.9823E-03 -2.5711E-03  2.2093E-04
  2.4124E-03 -2.9879E-03  2.7817E-04
  2.7257E-03 -3.5572E-03  2.2360E-04
  2.7190E-03 -4.1768E-03  2.7813E-04
  2.5426E-03 -4.8508E-03  2.1098E-04
  1.9563E-03 -5.4901E-03  2.6851E-04
  1.1912E-03 -5.9612E-03  1.9448E-04
  1.6301E-04 -6.2521E-03  2.4932E-04
 -9.0828E-04 -6.1332E-03  1.9029E-04
 -1.8028E-03 -5.7777E-03  2.6851E-04
 -2.5180E-03 -5.1540E-03  2.2177E-04
 -2.7765E-03 -4.4548E-03  2.9731E-04
 -2.8300E-03 -3.7796E-03  2.5117E-04
 -2.5179E-03 -3.1605E-03  3.0694E-04
 -2.0759E-03 -2.7119E-03  2.5390E-04
 -1.4389E-03 -2.3502E-03  3.0697E-04
 -7.4886E-04 -2.1722E-03  2.4822E-04
 -3.0698E-04 -2.0817E-03  2.9739E-04
  2.9620E-04 -1.4007E-03  2.1705E-04
  6.0439E-04 -1.4294E-03  2.6862E-04
  1.1791E-03 -1.5664E-03  2.1735E-04
  1.6452E-03 -1.7603E-03  2.7819E-04
  2.0381E-03 -2.0579E-03  2.2033E-04
  2.2062E-03 -2.3980E-03  2.7817E-04
  2.2405E-03 -2.8046E-03  2.2210E-04
  1.9710E-03 -3.2178E-03  2.6855E-04
  1.5552E-03 -3.5908E-03  2.2088E-04
  8.6793E-04 -3.8937E-03  2.7812E-04
  9.9499E-05 -4.0123E-03  2.1998E-04
 -7.0489E-04 -3.9992E-03  2.8771E-04
 -1.4536E-03 -3.7493E-03  2.3137E-04
 -1.9470E-03 -3.4048E-03  2.9732E-04
 -2.2729E-03 -2.9772E-03  2.4488E-04
 -2.2589E-03 -2.5467E-03  3.0694E-04
 -2.1127E-03 -2.1775E-03  2.5420E-04
 -1.7171E-03 -1.8562E-03  3.0697E-04
 -1.2318E-03 -1.6461E-03  2.4733E-04
 -6.2837E-04 -1.4966E-03  2.9740E-04
 -3.0819E-04 -1.4678E-03  2.4344E-04
  2.0147E-04 -7.0994E-04  2.6862E-04
  5.4924E-04 -7.4111E-04  2.1286E-04
  1.0409E-03 -7.9626E-04  2.6862E-04
  1.4864E-03 -9.0236E-04  2.1645E-04
  1.7747E-03 -1.0360E-03  2.6860E-04
  1.9602E-03 -1.2131E-03  2.2212E-04
  1.8992E-03 -1.4052E-03  2.6858E-04
  1.7196E-03 -1.6009E-03  2.2270E-04
  1.2804E-03 -1.7840E-03  2.8774E-04
  7.3551E-04 -1.9074E-03  2.3138E-04
  5.7545E-05 -1.9853E-03  2.9732E-04
 -6.2461E-04 -1.9488E-03  2.3498E-04
 -1.2085E-03 -1.8607E-03  2.9733E-04
 -1.7001E-03 -1.6845E-03  2.4398E-04
 -1.9184E-03 -1.4867E-03  2.9735E-04
 -2.0051E-03 -1.2851E-03  2.5150E-04
 -1.8274E-03 -1.0984E-03  3.0697E-04
 -1.5400E-03 -9.5422E-04  2.4732E-04
 -1.0793E-03 -8.3463E-04  2.9740E-04
 -5.7142E-04 -7.7649E-04  2.4284E-04
 -2.2066E-04 -7.4831E-04  2.8781E-04
  2.4704E-04 -3.4298E-04  2.1346E-04
  5.1806E-04 -2.9741E-04  2.6863E-04
  1.0169E-03 -3.8734E-04  2.1226E-04
  1.4054E-03 -3.7414E-04  2.6861E-04
  1.7219E-03 -5.0723E-04  2.1704E-04
  1.8370E-03 -5.3718E-04  2.7818E-04
  1.8393E-03 -6.8464E-04  2.2182E-04
  1.5922E-03 -7.2897E-04  2.7816E-04
  1.2307E-03 -8.6503E-04  2.3079E-04
  6.6659E-04 -8.8239E-04  2.8774E-04
  5.2751E-05 -9.5911E-04  2.3498E-04
 -5.8027E-04 -8.9198E-04  2.9733E-04
 -1.1714E-03 -8.9919E-04  2.4218E-04
 -1.5730E-03 -7.6734E-04  3.0693E-04
 -1.8555E-03 -7.2480E-04  2.4640E-04
 -1.8705E-03 -5.6596E-04  3.0696E-04
 -1.7747E-03 -5.3481E-04  2.5182E-04
 -1.4534E-03 -4.0292E-04  2.9739E-04
 -1.0523E-03 -4.1073E-04  2.4404E-04
 -5.4205E-04 -3.1659E-04  2.9741E-04
 -2.6503E-04 -3.6577E-04  2.3865E-04
  3.7957E-04  1.5572E-04  4.6716E-04
  8.8991E-04  2.2506E-04  4.6411E-04
  1.7080E-03  2.0437E-04  4.6714E-04
  2.4569E-03  3.3665E-04  4.5830E-04
  2.9631E-03  3.7951E-04  4.5249E-04
  3.3223E-03  5.6497E-04  4.3847E-04
  3.2934E-03  6.5188E-04  4.2323E-04
  3.0664E-03  8.6587E-04  3.9767E-04
  2.3931E-03  9.6309E-04  3.9399E-04
  1.5336E-03  1.1415E-03  3.6388E-04
  3.8910E-04  1.1576E-03  3.7937E-04
 -7.9553E-04  1.2108E-03  3.7299E-04
 -1.8337E-03  1.0798E-03  4.2316E-04
 -2.7130E-03  9.9047E-04  4.3595E-04
 -3.1279E-03  7.6860E-04  4.8159E-04
 -3.3066E-03  6.5342E-04  4.9592E-04
 -3.0165E-03  4.3787E-04  5.2545E-04
 -2.5441E-03  3.8012E-04  5.2852E-04
 -1.7809E-03  2.3356E-04  5.3524E-04
 -9.3822E-04  2.4056E-04  5.3739E-04
 -3.9901E-04  1.6544E-04  5.4013E-04
  4.4921E-04  4.4131E-04  4.6320E-04
  9.0511E-04  4.5742E-04  4.6229E-04
  1.7843E-03  5.5412E-04  4.6014E-04
  2.5107E-03  6.8121E-04  4.5738E-04
  3.1209E-03  8.9068E-04  4.4397E-04
  3.4056E-03  1.1287E-03  4.3299E-04
  3.5090E-03  1.4403E-03  3.9951E-04
  3.1618E-03  1.7512E-03  3.7942E-04
  2.5925E-03  2.0690E-03  3.3865E-04
  1.5953E-03  2.3249E-03  3.3073E-04
  4.3985E-04  2.4710E-03  2.9425E-04
 -8.1709E-04  2.4756E-03  3.3073E-04
 -1.9987E-03  2.3027E-03  3.4290E-04
 -2.8066E-03  2.0137E-03  4.0858E-04
 -3.3729E-03  1.6706E-03  4.3385E-04
 -3.4054E-03  1.3086E-03  4.8162E-04
 -3.2074E-03  1.0174E-03  5.0355E-04
 -2.6079E-03  7.5902E-04  5.2548E-04
 -1.8776E-03  6.0245E-04  5.2946E-04
 -9.5859E-04  4.8659E-04  5.3525E-04
 -4.7383E-04  4.6835E-04  5.3526E-04
  4.2822E-04  8.1265E-04  4.6228E-04
  1.0018E-03  8.8715E-04  4.6258E-04
  1.9318E-03  1.0316E-03  4.5740E-04
  2.7908E-03  1.3247E-03  4.4369E-04
  3.4106E-03  1.6883E-03  4.2815E-04
  3.8791E-03  2.2193E-03  3.8585E-04
  3.9159E-03  2.7971E-03  3.5024E-04
  3.7152E-03  3.4744E-03  2.7421E-04
  2.9668E-03  4.1000E-03  2.2859E-04
  1.9657E-03  4.6539E-03  1.3435E-04
  5.3981E-04  4.9848E-03  1.0699E-04
 -9.7386E-04  4.9793E-03  7.3556E-05
 -2.2955E-03  4.6202E-03  1.7995E-04
 -3.3824E-03  4.0144E-03  2.2890E-04
 -3.8330E-03  3.2541E-03  3.4535E-04
 -3.9762E-03  2.5688E-03  4.0103E-04
 -3.5661E-03  1.9120E-03  4.7191E-04
 -2.9573E-03  1.4651E-03  4.9962E-04
 -2.0533E-03  1.0996E-03  5.2063E-04
 -1.0687E-03  9.3455E-04  5.2947E-04
 -4.5740E-04  8.4667E-04  5.3039E-04
  5.5473E-04  1.1192E-03  4.6227E-04
  1.1240E-03  1.1678E-03  4.6227E-04
  2.2164E-03  1.4284E-03  4.4978E-04
  3.1674E-03  1.7905E-03  4.3303E-04
  4.0155E-03  2.4006E-03  3.8282E-04
  4.5143E-03  3.1085E-03  3.2106E-04
  4.7896E-03  4.0615E-03  2.1979E-04
  4.4647E-03  5.0338E-03  1.2159E-04
  3.8294E-03  6.0892E-03 -4.3464E-05
  2.4800E-03  6.9536E-03 -1.7019E-04
  8.0353E-04  7.5262E-03 -3.8079E-04
 -1.1816E-03  7.5272E-03 -3.7441E-04
 -3.0347E-03  6.9364E-03 -3.1122E-04
 -4.1726E-03  5.8796E-03 -6.3221E-05
 -4.8786E-03  4.7528E-03  7.5995E-05
 -4.7475E-03  3.5558E-03  2.8213E-04
 -4.3138E-03  2.6863E-03  3.8462E-04
 -3.4202E-03  1.9364E-03  4.7193E-04
 -2.3972E-03  1.5086E-03  5.0541E-04
 -1.2116E-03  1.2018E-03  5.3037E-04
 -5.9850E-04  1.1459E-03  5.3037E-04
  5.8391E-04  1.2165E-03  4.6226E-04
  1.3065E-03  1.3463E-03  4.5648E-04
  2.5544E-03  1.5959E-03  4.4277E-04
  3.7502E-03  2.1368E-03  4.0017E-04
  4.7286E-03  2.8118E-03  3.4053E-04
  5.5482E-03  3.8452E-03  2.1402E-04
  5.8411E-03  4.9900E-03  6.8090E-05
  5.8020E-03  6.4582E-03 -1.7111E-04
  4.8866E-03  7.8477E-03 -3.9871E-04
  3.5011E-03  9.1803E-03 -8.0706E-04
  1.1133E-03  9.9807E-03 -1.1522E-03
 -1.6228E-03  1.0053E-02 -1.4293E-03
 -3.9430E-03  8.9555E-03 -1.0842E-03
 -5.6899E-03  7.5945E-03 -8.5913E-04
 -6.1567E-03  5.6898E-03 -3.2096E-04
 -6.0554E-03  4.2999E-03  1.2464E-05
 -5.1855E-03  3.0208E-03  2.8700E-04
 -4.1076E-03  2.2406E-03  4.1170E-04
 -2.7878E-03  1.6250E-03  4.9140E-04
 -1.4205E-03  1.3472E-03  5.1788E-04
 -6.4227E-04  1.2018E-03  5.3036E-04
  7.3838E-04  1.2061E-03  4.6347E-04
  1.5035E-03  1.2699E-03  4.5737E-04
  2.9859E-03  1.6269E-03  4.2846E-04
  4.3834E-03  2.1309E-03  3.7947E-04
  5.7057E-03  3.0318E-03  2.6359E-04
  6.6925E-03  4.1099E-03  1.0700E-04
  7.4336E-03  5.6945E-03 -1.8114E-04
  7.3223E-03  7.3855E-03 -5.1538E-04
  6.6706E-03  9.4087E-03 -1.0440E-03
  4.6127E-03  1.1092E-02 -1.6040E-03
  1.7142E-03  1.2286E-02 -2.6589E-03
 -2.2066E-03  1.1830E-02 -3.2029E-03
 -5.7251E-03  1.0467E-02 -2.7336E-03
 -7.4381E-03  7.9486E-03 -2.1342E-03
 -8.1959E-03  6.0525E-03 -9.8859E-04
 -7.4165E-03  4.2165E-03 -2.5289E-04
 -6.3121E-03  3.0616E-03  1.3619E-04
 -4.8161E-03  2.0967E-03  3.7458E-04
 -3.2560E-03  1.5690E-03  4.6584E-04
 -1.6348E-03  1.1969E-03  5.1574E-04
 -7.9947E-04  1.1334E-03  5.2578E-04
  7.8823E-04  9.1961E-04  4.7197E-04
  1.7127E-03  1.0552E-03  4.5675E-04
  3.4154E-03  1.3234E-03  4.2814E-04
  5.1150E-03  1.9359E-03  3.4054E-04
  6.7076E-03  2.7336E-03  2.0916E-04
  8.1819E-03  4.0809E-03 -6.5046E-05
  9.1168E-03  5.6548E-03 -4.1816E-04
  9.6201E-03  7.9685E-03 -1.0579E-03
  8.5928E-03  1.0333E-02 -1.7594E-03
  6.6086E-03  1.2726E-02 -3.1181E-03
  1.8512E-03  1.3872E-02 -4.8248E-03
 -3.7343E-03  1.3028E-02 -5.0162E-03
 -7.8239E-03  1.0195E-02 -4.4951E-03
 -1.0224E-02  7.4368E-03 -2.4728E-03
 -9.8888E-03  5.2070E-03 -1.2349E-03
 -8.9635E-03  3.6952E-03 -4.1091E-04
 -7.3054E-03  2.4659E-03  9.7275E-05
 -5.5410E-03  1.7254E-03  3.3383E-04
 -3.6877E-03  1.1579E-03  4.6704E-04
 -1.8370E-03  9.1043E-04  5.1421E-04
 -8.3685E-04  7.8333E-04  5.3520E-04
  9.2902E-04  5.0693E-04  4.6922E-04
  1.9073E-03  5.5953E-04  4.6222E-04
  3.8264E-03  8.5930E-04  4.1110E-04
  5.7937E-03  1.2988E-03  3.2593E-04
  7.7742E-03  2.1556E-03  1.0974E-04
  9.6138E-03  3.2435E-03 -1.9938E-04
  1.1279E-02  5.1491E-03 -8.3165E-04
  1.2000E-02  7.3440E-03 -1.6136E-03
  1.1832E-02  1.0859E-02 -3.1978E-03
  8.1513E-03  1.4005E-02 -4.6440E-03
  2.0782E-03  1.5339E-02 -6.7120E-03
 -5.8823E-03  1.3465E-02 -7.3103E-03
 -1.1762E-02  9.5372E-03 -4.3678E-03
 -1.2427E-02  6.3032E-03 -2.0120E-03
 -1.1889E-02  4.1114E-03 -1.0090E-03
 -1.0158E-02  2.5674E-03 -2.6257E-04
 -8.2191E-03  1.6493E-03  1.2068E-04
 -6.1242E-03  9.7287E-04  3.7455E-04
 -4.0382E-03  6.1207E-04  4.7068E-04
 -2.0093E-03  3.6489E-04  5.3031E-04
 -9.8068E-04  3.1838E-04  5.3732E-04
  9.5365E-04 -1.2164E-04  4.7682E-04
  2.0423E-03 -4.8958E-05  4.5887E-04
  4.1548E-03  9.2436E-05  4.1840E-04
  6.3311E-03  4.4966E-04  2.8548E-04
  8.6524E-03  9.3868E-04  6.8091E-05
  1.1019E-02  1.9511E-03 -4.5434E-04
  1.3218E-02  3.2278E-03 -1.2056E-03
  1.5190E-02  5.7537E-03 -2.7912E-03
  1.5254E-02  8.5692E-03 -5.0521E-03
  1.2407E-02  1.4304E-02 -7.9222E-03
  1.3109E-03  1.8183E-02 -9.8659E-03
 -1.0605E-02  1.4083E-02 -7.0883E-03
 -1.4985E-02  8.4568E-03 -3.9442E-03
 -1.5665E-02  5.0414E-03 -2.1138E-03
 -1.3625E-02  2.4693E-03 -6.4650E-04
 -1.1313E-02  1.2727E-03 -1.5377E-04
 -8.9000E-03  4.8148E-04  2.3344E-04
 -6.5309E-03  1.0154E-04  3.9036E-04
 -4.2957E-03 -1.6054E-04  4.9622E-04
 -2.1179E-03 -2.7154E-04  5.3153E-04
 -9.8280E-04 -3.2598E-04  5.4979E-04
  1.0288E-03 -8.1164E-04  4.7409E-04
  2.1213E-03 -8.0767E-04  4.6708E-04
  4.2822E-03 -7.7295E-04  4.0654E-04
  6.6400E-03 -7.1508E-04  3.0160E-04
  9.1345E-03 -5.4351E-04 -1.4591E-05
  1.1903E-02 -2.7716E-04 -5.5432E-04
  1.4713E-02  4.3931E-04 -1.7742E-03
  1.7342E-02  1.2877E-03 -3.6249E-03
  1.9839E-02  3.6224E-03 -7.0570E-03
  1.7763E-02  6.6849E-03 -1.2981E-02
  2.6121E-03  1.0728E-02 -9.2111E-03
 -1.5606E-02  1.1145E-02 -6.3833E-03
 -2.1039E-02  4.6417E-03 -3.8722E-03
 -1.8415E-02  1.3362E-03 -2.3371E-03
 -1.5222E-02  2.2450E-04 -9.5270E-04
 -1.2146E-02 -5.8347E-04 -3.4036E-05
 -9.2664E-03 -8.2466E-04  2.3892E-04
 -6.7663E-03 -9.5827E-04  4.3292E-04
 -4.3839E-03 -9.9671E-04  5.0291E-04
 -2.1748E-03 -1.0120E-03  5.4492E-04
 -1.0567E-03 -1.0129E-03  5.5010E-04
  9.6341E-04 -1.5230E-03  4.8171E-04
  2.0737E-03 -1.5774E-03  4.6162E-04
  4.2474E-03 -1.6834E-03  4.2328E-04
  6.5186E-03 -1.9237E-03  2.9644E-04
  9.0904E-03 -2.2227E-03  6.8093E-05
  1.1847E-02 -2.7607E-03 -5.8929E-04
  1.4783E-02 -3.3347E-03 -1.7694E-03
  1.7665E-02 -4.3296E-03 -3.8388E-03
  2.0652E-02 -5.4934E-03 -7.1157E-03
  1.9501E-02 -7.3020E-03 -8.2723E-03
  5.7699E-03 -5.3138E-03 -6.8084E-03
 -1.7445E-02 -4.9977E-03 -3.3970E-03
 -2.4797E-02 -4.9731E-03 -3.0062E-03
 -1.8693E-02 -4.2968E-03 -1.8215E-03
 -1.5545E-02 -3.3102E-03 -1.0645E-03
 -1.2120E-02 -2.7448E-03 -1.9875E-04
 -9.2749E-03 -2.3248E-03  2.7236E-04
 -6.6546E-03 -2.0625E-03  4.2260E-04
 -4.3494E-03 -1.8536E-03  5.2057E-04
 -2.1259E-03 -1.7516E-03  5.4220E-04
 -9.8285E-04 -1.6981E-03  5.5468E-04
  9.5099E-04 -2.1857E-03  4.7230E-04
  1.9609E-03 -2.2383E-03  4.6712E-04
  3.9532E-03 -2.5255E-03  4.2664E-04
  6.1006E-03 -2.9384E-03  3.6000E-04
  8.3438E-03 -3.7578E-03  1.3893E-04
  1.0791E-02 -4.7804E-03 -2.1884E-04
  1.3285E-02 -6.7289E-03 -1.2242E-03
  1.5183E-02 -8.8696E-03 -2.7654E-03
  1.6627E-02 -1.3283E-02 -4.0132E-03
  1.7944E-02 -1.7522E-02 -4.8078E-03
  5.3278E-03 -2.0953E-02 -2.8067E-03
 -1.5265E-02 -1.9260E-02  3.3015E-04
 -2.0610E-02 -1.3209E-02 -9.5484E-04
 -1.6751E-02 -8.8982E-03 -9.0877E-04
 -1.3747E-02 -6.6271E-03 -5.8459E-04
 -1.1160E-02 -4.7413E-03 -7.7805E-05
 -8.6095E-03 -3.7793E-03  2.4776E-04
 -6.2950E-03 -3.0454E-03  4.3783E-04
 -4.0775E-03 -2.6580E-03  5.0661E-04
 -2.0193E-03 -2.3891E-03  5.4496E-04
 -9.7894E-04 -2.3408E-03  5.4710E-04
  7.9806E-04 -2.6375E-03  4.6716E-04
  1.7530E-03 -2.7846E-03  4.6167E-04
  3.5472E-03 -3.0752E-03  4.4765E-04
  5.3710E-03 -3.7466E-03  3.8618E-04
  7.2482E-03 -4.6262E-03  2.9188E-04
  9.1252E-03 -6.2091E-03  1.5503E-05
  1.0693E-02 -8.1156E-03 -3.5497E-04
  1.1871E-02 -1.1402E-02 -1.0531E-03
  1.1999E-02 -1.4643E-02 -1.2587E-03
  1.1609E-02 -2.0217E-02 -1.7910E-03
  4.0317E-03 -2.6390E-02 -1.3018E-03
 -9.2068E-03 -2.2718E-02 -7.0497E-04
 -1.4432E-02 -1.5467E-02 -7.4348E-04
 -1.3143E-02 -1.1354E-02 -4.8093E-04
 -1.1387E-02 -8.1103E-03 -1.6532E-04
 -9.5485E-03 -6.2462E-03  8.4503E-05
 -7.5788E-03 -4.7185E-03  3.2592E-04
 -5.6035E-03 -3.8623E-03  4.4273E-04
 -3.6931E-03 -3.2114E-03  5.1090E-04
 -1.8232E-03 -2.9306E-03  5.3252E-04
 -8.3697E-04 -2.7883E-03  5.4014E-04
  7.4154E-04 -2.9619E-03  4.5867E-04
  1.5232E-03 -3.0367E-03  4.5745E-04
  3.0441E-03 -3.4495E-03  4.4495E-04
  4.5495E-03 -4.0434E-03  4.2819E-04
  6.0279E-03 -5.1261E-03  3.5333E-04
  7.3015E-03 -6.4599E-03  2.6754E-04
  8.3738E-03 -8.5540E-03  4.8331E-05
  8.6553E-03 -1.0882E-02 -8.2663E-05
  8.4054E-03 -1.4054E-02 -3.5945E-04
  6.1974E-03 -1.7338E-02 -3.3539E-04
  2.0701E-03 -2.0525E-02 -6.2666E-04
 -4.3451E-03 -2.0462E-02 -8.7972E-04
 -9.0147E-03 -1.5439E-02 -6.3195E-04
 -9.3938E-03 -1.1324E-02 -2.6742E-04
 -8.9980E-03 -8.7943E-03  2.2493E-05
 -7.7681E-03 -6.6445E-03  2.5780E-04
 -6.3686E-03 -5.3017E-03  3.8342E-04
 -4.7878E-03 -4.2039E-03  4.7683E-04
 -3.1940E-03 -3.6052E-03  5.0851E-04
 -1.5962E-03 -3.1875E-03  5.3043E-04
 -7.7742E-04 -3.1097E-03  5.2740E-04
  5.6456E-04 -2.9834E-03  4.4775E-04
  1.2845E-03 -3.1400E-03  4.4592E-04
  2.5404E-03 -3.4504E-03  4.4286E-04
  3.7601E-03 -4.1159E-03  4.2762E-04
  4.8317E-03 -4.9728E-03  4.0386E-04
  5.7892E-03 -6.2979E-03  3.4451E-04
  6.2703E-03 -7.8318E-03  2.9187E-04
  6.4186E-03 -9.8384E-03  1.6537E-04
  5.5439E-03 -1.1929E-02  9.7261E-05
  4.0328E-03 -1.4011E-02 -4.7409E-05
  9.0923E-04 -1.5656E-02 -1.7018E-04
 -2.7028E-03 -1.5014E-02 -3.7166E-04
 -5.2955E-03 -1.2993E-02 -3.8416E-04
 -6.8204E-03 -1.0547E-02 -7.0216E-05
 -6.7078E-03 -8.2546E-03  2.0430E-04
 -6.1825E-03 -6.6152E-03  3.4511E-04
 -5.1381E-03 -5.2013E-03  4.5250E-04
 -3.9744E-03 -4.3084E-03  4.8418E-04
 -2.6766E-03 -3.6109E-03  5.0612E-04
 -1.3487E-03 -3.2911E-03  5.1101E-04
 -5.9375E-04 -3.1294E-03  5.1101E-04
  5.1714E-04 -2.8674E-03  4.3318E-04
  1.0562E-03 -2.9349E-03  4.3318E-04
  2.0937E-03 -3.2864E-03  4.3225E-04
  3.0271E-03 -3.7814E-03  4.2827E-04
  3.8796E-03 -4.5953E-03  4.1211E-04
  4.4425E-03 -5.5665E-03  3.9413E-04
  4.8033E-03 -6.8661E-03  3.5395E-04
  4.5583E-03 -8.2603E-03  3.1621E-04
  3.9592E-03 -9.7428E-03  2.3531E-04
  2.4708E-03 -1.1090E-02  1.7510E-04
  5.6510E-04 -1.1747E-02  7.7819E-05
 -1.6829E-03 -1.1707E-02  9.7275E-06
 -3.6970E-03 -1.0517E-02  3.2225E-05
 -4.6554E-03 -8.9070E-03  1.8972E-04
 -5.0874E-03 -7.3527E-03  3.2049E-04
 -4.7148E-03 -5.9069E-03  4.3305E-04
 -4.1119E-03 -4.8528E-03  4.6898E-04
 -3.1974E-03 -3.9711E-03  4.9153E-04
 -2.2068E-03 -3.4479E-03  4.9460E-04
 -1.1146E-03 -3.0760E-03  4.9644E-04
 -5.4391E-04 -3.0085E-03  4.9645E-04
  3.6020E-04 -2.4970E-03  4.1860E-04
  8.7371E-04 -2.6102E-03  4.2043E-04
  1.6938E-03 -2.8328E-03  4.2346E-04
  2.4640E-03 -3.2968E-03  4.1857E-04
  3.0466E-03 -3.8739E-03  4.1367E-04
  3.4992E-03 -4.6894E-03  4.0604E-04
  3.5765E-03 -5.5959E-03  3.9901E-04