# vtk DataFile Version 3.0
model R-SWMS
ASCII
DATASET RECTILINEAR_GRID
DIMENSIONS      21    21    21
X_COORDINATES      21 float
 -5.0000E+00 -4.5000E+00 -4.0000E+00 -3.5000E+00 -3.0000E+00 -2.5000E+00 -2.0000E+00 -1.5000E+00 -1.0000E+00 -5.0000E-01  0.0000E+00  5.0000E-01  1.0000E+00  1.5000E+00  2.0000E+00  2.5000E+00  3.0000E+00  3.5000E+00  4.0000E+00  4.5000E+00  5.0000E+00
Y_COORDINATES      21 float
-5.0000E+00-4.5000E+00-4.0000E+00-3.5000E+00-3.0000E+00-2.5000E+00-2.0000E+00-1.5000E+00-1.0000E+00-5.0000E-01 0.0000E+00 5.0000E-01 1.0000E+00 1.5000E+00 2.0000E+00 2.5000E+00 3.0000E+00 3.5000E+00 4.0000E+00 4.5000E+00 5.0000E+00
Z_COORDINATES      21 float
 0.0000E+00-5.0000E-01-1.0000E+00-1.5000E+00-2.0000E+00-2.5000E+00-3.0000E+00-3.5000E+00-4.0000E+00-4.5000E+00-5.0000E+00-5.5000E+00-6.0000E+00-6.5000E+00-7.0000E+00-7.5000E+00-8.0000E+00-8.5000E+00-9.0000E+00-9.5000E+00-1.0000E+01
     POINT_DATA    9261
SCALARS velocity float 3
LOOKUP_TABLE default
  4.2557E-04  2.0733E-04  2.4370E-04
  8.6326E-04  1.5519E-04  3.0069E-04
  1.7016E-03  2.6249E-04  2.3945E-04
  2.3811E-03  2.7157E-04  2.9096E-04
  2.9513E-03  4.2733E-04  2.2973E-04
  3.2099E-03  4.8488E-04  2.8123E-04
  3.2921E-03  6.8605E-04  2.1091E-04
  2.9476E-03  7.7568E-04  2.6179E-04
  2.3972E-03  9.8409E-04  1.8906E-04
  1.4591E-03  1.0374E-03  2.5207E-04
  3.9567E-04  1.1664E-03  1.6905E-04
 -7.5135E-04  1.1052E-03  2.5207E-04
 -1.8372E-03  1.0859E-03  1.8906E-04
 -2.5887E-03  9.0169E-04  2.8117E-04
 -3.1265E-03  7.9570E-04  2.3453E-04
 -3.1758E-03  5.7212E-04  3.1030E-04
 -3.0105E-03  4.8428E-04  2.6487E-04
 -2.4585E-03  3.1035E-04  3.2974E-04
 -1.7809E-03  2.8490E-04  2.7763E-04
 -9.1172E-04  1.7458E-04  3.2977E-04
 -4.5223E-04  2.1945E-04  2.8007E-04
  3.7829E-04  4.2678E-04  2.9099E-04
  9.0236E-04  4.6770E-04  2.3915E-04
  1.7362E-03  5.3831E-04  2.9098E-04
  2.4953E-03  6.8407E-04  2.3610E-04
  3.0161E-03  8.6313E-04  2.8125E-04
  3.3944E-03  1.1173E-03  2.1789E-04
  3.3793E-03  1.3915E-03  2.6181E-04
  3.1596E-03  1.7047E-03  1.8362E-04
  2.4771E-03  1.9924E-03  2.3269E-04
  1.5939E-03  2.2362E-03  1.4754E-04
  4.1686E-04  2.3752E-03  2.0358E-04
 -8.1404E-04  2.3634E-03  1.3966E-04
 -1.8953E-03  2.2056E-03  2.2298E-04
 -2.8041E-03  1.9412E-03  1.8573E-04
 -3.2240E-03  1.5999E-03  2.8119E-04
 -3.3985E-03  1.2827E-03  2.4091E-04
 -3.0887E-03  9.7461E-04  3.1032E-04
 -2.5973E-03  7.5828E-04  2.7095E-04
 -1.8234E-03  5.7708E-04  3.2976E-04
 -9.5657E-04  4.9587E-04  2.7703E-04
 -4.0737E-04  4.5101E-04  3.2977E-04
  4.8376E-04  8.2809E-04  2.3885E-04
  9.7479E-04  8.6324E-04  2.9098E-04
  1.9144E-03  1.0384E-03  2.3763E-04
  2.7059E-03  1.2802E-03  2.9096E-04
  3.3855E-03  1.6798E-03  2.1850E-04
  3.7382E-03  2.1382E-03  2.6182E-04
  3.8921E-03  2.7383E-03  1.7059E-04
  3.5485E-03  3.3352E-03  1.9391E-04
  2.9532E-03  3.9608E-03  9.4522E-05
  1.8419E-03  4.4495E-03  1.2602E-04
  5.3558E-04  4.7505E-03  1.9387E-05
 -9.2091E-04  4.7306E-03  9.6938E-05
 -2.2866E-03  4.4060E-03  4.6653E-05
 -3.1944E-03  3.8100E-03  1.6481E-04
 -3.8113E-03  3.1562E-03  1.5180E-04
 -3.8010E-03  2.4387E-03  2.6180E-04
 -3.5377E-03  1.8934E-03  2.3274E-04
 -2.8561E-03  1.4014E-03  3.1034E-04
 -2.0388E-03  1.1126E-03  2.6883E-04
 -1.0378E-03  9.0200E-04  3.2976E-04
 -5.1587E-04  8.6261E-04  2.7703E-04
  4.8496E-04  1.0863E-03  3.0068E-04
  1.1109E-03  1.1854E-03  2.4096E-04
  2.1531E-03  1.3821E-03  2.9096E-04
  3.1322E-03  1.7957E-03  2.2215E-04
  3.8741E-03  2.3080E-03  2.5213E-04
  4.4628E-03  3.0677E-03  1.6181E-04
  4.5762E-03  3.8879E-03  1.6482E-04
  4.4212E-03  4.8890E-03  4.1201E-05
  3.5914E-03  5.8064E-03  2.9080E-05
  2.4335E-03  6.6377E-03 -1.3206E-04
  6.9785E-04  7.0851E-03 -1.3569E-04
 -1.1849E-03  7.0876E-03 -2.4534E-04
 -2.8158E-03  6.4749E-03 -9.6929E-05
 -4.1192E-03  5.6030E-03 -9.3908E-05
 -4.5953E-03  4.4402E-03  8.7252E-05
 -4.6822E-03  3.4762E-03  1.1847E-04
 -4.1260E-03  2.5454E-03  2.4242E-04
 -3.3708E-03  1.9392E-03  2.3608E-04
 -2.3227E-03  1.4450E-03  3.2004E-04
 -1.2011E-03  1.2199E-03  2.7429E-04
 -5.3343E-04  1.1008E-03  3.2976E-04
  6.2680E-04  1.2451E-03  2.4611E-04
  1.2705E-03  1.2996E-03  3.0066E-04
  2.5146E-03  1.6151E-03  2.3125E-04
  3.6318E-03  2.0511E-03  2.7154E-04
  4.6530E-03  2.8027E-03  1.7121E-04
  5.3181E-03  3.6747E-03  1.6483E-04
  5.7442E-03  4.8930E-03  2.0298E-05
  5.4669E-03  6.1406E-03 -2.9079E-05
  4.7781E-03  7.5403E-03 -2.5017E-04
  3.1205E-03  8.6299E-03 -3.4888E-04
  1.0118E-03  9.3456E-03 -6.4170E-04
 -1.5311E-03  9.1576E-03 -6.3958E-04
 -3.8792E-03  8.3784E-03 -6.3144E-04
 -5.2290E-03  6.8573E-03 -3.6831E-04
 -5.9934E-03  5.4802E-03 -2.0144E-04
 -5.6958E-03  4.0040E-03  6.7864E-05
 -5.0593E-03  2.9988E-03  1.2817E-04
 -3.9564E-03  2.1285E-03  2.6182E-04
 -2.7372E-03  1.6426E-03  2.5093E-04
 -1.3820E-03  1.2947E-03  3.2974E-04
 -6.8254E-04  1.2341E-03  2.7277E-04
  6.5951E-04  1.1638E-03  3.0066E-04
  1.4699E-03  1.2978E-03  2.3822E-04
  2.9046E-03  1.5614E-03  2.8124E-04
  4.2971E-03  2.1510E-03  1.9273E-04
  5.4977E-03  2.8894E-03  1.9392E-04
  6.5513E-03  4.0700E-03  3.9385E-05
  7.0421E-03  5.3894E-03 -3.8773E-05
  7.1439E-03  7.1627E-03 -2.9681E-04
  6.0805E-03  8.8277E-03 -4.7481E-04
  4.3530E-03  1.0446E-02 -9.2801E-04
  1.2256E-03  1.1175E-02 -1.2304E-03
 -2.2728E-03  1.0931E-02 -1.4566E-03
 -5.1159E-03  9.3694E-03 -1.2596E-03
 -7.1390E-03  7.6102E-03 -8.7034E-04
 -7.4485E-03  5.6021E-03 -4.2646E-04
 -7.1408E-03  4.1708E-03 -1.4177E-04
 -6.0015E-03  2.8892E-03  1.2604E-04
 -4.6853E-03  2.1139E-03  1.7939E-04
 -3.1566E-03  1.5031E-03  3.0062E-04
 -1.5950E-03  1.2308E-03  2.6518E-04
 -7.2737E-04  1.0911E-03  3.2974E-04
  8.1346E-04  9.5409E-04  2.4367E-04
  1.6681E-03  1.0135E-03  2.9095E-04
  3.3406E-03  1.3574E-03  2.1305E-04
  4.9599E-03  1.8424E-03  2.3272E-04
  6.5330E-03  2.7463E-03  9.0289E-05
  7.8181E-03  3.8388E-03  1.9388E-05
  8.8533E-03  5.5520E-03 -2.5593E-04
  8.9051E-03  7.3983E-03 -4.9419E-04
  8.2496E-03  9.8130E-03 -1.0278E-03
  5.4679E-03  1.1701E-02 -1.4820E-03
  1.5258E-03  1.2723E-02 -2.1862E-03
 -3.3367E-03  1.1870E-02 -2.3343E-03
 -7.4626E-03  9.7585E-03 -1.8060E-03
 -8.9962E-03  7.1940E-03 -1.1433E-03
 -9.4337E-03  5.2235E-03 -5.8994E-04
 -8.4087E-03  3.5622E-03 -1.4540E-04
 -7.0563E-03  2.5046E-03  3.1811E-05
 -5.3426E-03  1.6581E-03  2.3271E-04
 -3.5859E-03  1.1997E-03  2.3364E-04
 -1.7941E-03  8.7766E-04  3.2003E-04
 -8.7828E-04  8.2009E-04  2.6852E-04
  8.4375E-04  4.8492E-04  3.1035E-04
  1.8542E-03  5.9825E-04  2.3275E-04
  3.7335E-03  8.1459E-04  2.6183E-04
  5.6297E-03  1.3324E-03  1.4939E-04
  7.4942E-03  2.0117E-03  1.1634E-04
  9.2853E-03  3.2369E-03 -1.4297E-04
  1.0602E-02  4.6855E-03 -3.6825E-04
  1.1483E-02  7.0888E-03 -9.5127E-04
  1.0383E-02  9.5259E-03 -1.5788E-03
  7.7118E-03  1.2692E-02 -2.6460E-03
  1.3943E-03  1.4044E-02 -3.2049E-03
 -5.6062E-03  1.2579E-02 -2.9385E-03
 -9.7914E-03  9.3749E-03 -2.0629E-03
 -1.1814E-02  6.4312E-03 -1.1710E-03
 -1.1081E-02  4.0892E-03 -4.5543E-04
 -9.7917E-03  2.6769E-03 -1.7143E-04
 -7.9058E-03  1.6287E-03  1.1633E-04
 -5.9403E-03  1.0317E-03  1.7119E-04
 -3.9370E-03  5.9637E-04  3.0061E-04
 -1.9592E-03  4.0761E-04  2.6396E-04
 -9.1160E-04  3.1033E-04  3.2973E-04
  9.7104E-04 -8.4860E-05  2.4124E-04
  1.9978E-03 -5.3339E-05  2.9094E-04
  4.0302E-03  1.3425E-04  1.9971E-04
  6.1571E-03  4.0724E-04  2.0362E-04
  8.3322E-03  9.8128E-04 -5.1503E-06
  1.0492E-02  1.7204E-03 -1.7446E-04
  1.2544E-02  3.1671E-03 -7.0948E-04
  1.3746E-02  4.8144E-03 -1.3368E-03
  1.4129E-02  8.0838E-03 -2.6494E-03
  9.9857E-03  1.1341E-02 -4.3660E-03
  2.1766E-03  1.5642E-02 -4.8081E-03
 -8.0053E-03  1.5096E-02 -3.2525E-03
 -1.4591E-02  8.8937E-03 -1.9916E-03
 -1.4282E-02  4.5864E-03 -1.0364E-03
 -1.3044E-02  2.6315E-03 -5.0051E-04
 -1.0869E-02  1.2406E-03 -2.9076E-05
 -8.6153E-03  5.7286E-04  7.9068E-05
 -6.3750E-03  1.1150E-04  2.5209E-04
 -4.1782E-03 -1.1091E-04  2.4424E-04
 -2.0802E-03 -2.5699E-04  3.2972E-04
 -1.0171E-03 -2.8124E-04  2.7275E-04
  9.5044E-04 -7.8557E-04  3.0065E-04
  2.0569E-03 -7.7130E-04  2.2821E-04
  4.1941E-03 -7.4185E-04  2.7153E-04
  6.4059E-03 -6.6692E-04  1.2575E-04
  8.8075E-03 -5.4289E-04  4.8473E-05
  1.1285E-02 -2.2625E-04 -3.4923E-04
  1.3696E-02  1.9863E-04 -8.2360E-04
  1.5951E-02  1.2692E-03 -1.9067E-03
  1.6910E-02  2.5852E-03 -3.4372E-03
  1.6275E-02  7.0284E-03 -5.5155E-03
  5.1473E-03  1.3710E-02 -7.3726E-03
 -1.3793E-02  1.0073E-02 -3.0849E-03
 -2.0301E-02  3.9402E-03 -2.1976E-03
 -1.7208E-02  1.5527E-03 -1.3202E-03
 -1.4427E-02  0.0000E+00 -4.2631E-04
 -1.1624E-02 -4.9701E-04 -1.2569E-04
 -9.0349E-03 -8.0946E-04  1.7449E-04
 -6.5641E-03 -9.0596E-04  1.9998E-04
 -4.3055E-03 -9.5516E-04  3.1031E-04
 -2.1169E-03 -9.6887E-04  2.7063E-04
 -9.8920E-04 -9.6980E-04  3.2973E-04
  9.8562E-04 -1.4887E-03  2.3640E-04
  2.0415E-03 -1.5129E-03  2.9095E-04
  4.1164E-03 -1.6465E-03  2.0699E-04
  6.3561E-03 -1.8278E-03  2.1332E-04
  8.7066E-03 -2.1662E-03 -1.7572E-05
  1.1234E-02 -2.5540E-03 -2.3262E-04
  1.3793E-02 -3.1970E-03 -9.2356E-04
  1.6133E-02 -3.8310E-03 -1.8017E-03
  1.8347E-02 -4.8522E-03 -3.4125E-03
  2.1113E-02 -5.0665E-03 -5.6617E-03
  6.2443E-03 -4.1512E-03 -2.9010E-03
 -1.7773E-02 -2.0028E-03 -4.1507E-03
 -2.2833E-02 -3.8573E-03 -1.9798E-03
 -1.8223E-02 -3.7096E-03 -1.2107E-03
 -1.4631E-02 -3.1914E-03 -5.6561E-04
 -1.1679E-02 -2.6460E-03 -2.9076E-05
 -8.9335E-03 -2.2855E-03  9.4521E-05
 -6.5207E-03 -1.9877E-03  2.8119E-04
 -4.2238E-03 -1.8134E-03  2.5456E-04
 -2.0948E-03 -1.6875E-03  3.3943E-04
 -1.0159E-03 -1.6633E-03  2.7883E-04
  8.7291E-04 -2.0950E-03  3.0067E-04
  1.9064E-03 -2.2053E-03  2.3520E-04
  3.8793E-03 -2.4148E-03  2.8125E-04
  5.9107E-03 -2.8997E-03  1.6030E-04
  8.0812E-03 -3.5243E-03  1.2604E-04
  1.0307E-02 -4.6756E-03 -1.9538E-04
  1.2419E-02 -5.9889E-03 -5.4269E-04
  1.4305E-02 -8.4309E-03 -1.2758E-03
  1.5674E-02 -1.0837E-02 -1.9659E-03
  1.6891E-02 -1.6060E-02 -3.0029E-03
  8.2109E-03 -2.0583E-02 -3.9385E-03
 -1.3878E-02 -1.7460E-02 -2.2409E-04
 -2.2009E-02 -1.1489E-02 -1.1619E-04
 -1.6136E-02 -8.6193E-03 -5.5488E-04
 -1.3363E-02 -6.0274E-03 -2.4226E-04
 -1.0739E-02 -4.6926E-03 -5.7552E-05
 -8.3766E-03 -3.6066E-03  1.8421E-04
 -6.1029E-03 -3.0127E-03  2.0909E-04
 -4.0052E-03 -2.5602E-03  3.1033E-04
 -1.9694E-03 -2.3598E-03  2.7095E-04
 -9.1169E-04 -2.2598E-03  3.2976E-04
  8.3477E-04 -2.6134E-03  2.4431E-04
  1.7216E-03 -2.6770E-03  3.0068E-04
  3.4628E-03 -3.0481E-03  2.2338E-04
  5.2465E-03 -3.5736E-03  2.5214E-04
  7.0487E-03 -4.5749E-03  1.2181E-04
  8.7688E-03 -5.7925E-03  6.7862E-05
  1.0347E-02 -7.8982E-03 -2.5564E-04
  1.1284E-02 -1.0179E-02 -4.8450E-04
  1.1777E-02 -1.4036E-02 -8.4916E-04
  1.1365E-02 -1.7888E-02 -8.0384E-04
  4.2962E-03 -2.3702E-02 -8.9713E-04
 -8.6808E-03 -2.4522E-02 -9.9735E-04
 -1.4434E-02 -1.6124E-02 -2.8393E-04
 -1.2761E-02 -1.0634E-02 -1.7441E-04
 -1.1094E-02 -8.0386E-03 -1.0449E-04
 -9.2580E-03 -5.8941E-03  9.6942E-05
 -7.3696E-03 -4.6790E-03  1.5514E-04
 -5.4743E-03 -3.7045E-03  2.9093E-04
 -3.6027E-03 -3.1887E-03  2.5671E-04
 -1.7943E-03 -2.8273E-03  3.2977E-04
 -8.7355E-04 -2.7637E-03  2.7340E-04
  6.6931E-04 -2.8567E-03  3.0071E-04
  1.4926E-03 -3.0131E-03  2.3644E-04
  2.9826E-03 -3.3221E-03  2.8129E-04
  4.4638E-03 -4.0146E-03  2.1216E-04
  5.8621E-03 -4.9021E-03  2.4244E-04
  7.1660E-03 -6.3721E-03  1.1090E-04
  8.0317E-03 -8.0705E-03  6.7860E-05
  8.5599E-03 -1.0602E-02 -1.2752E-04
  7.9656E-03 -1.3228E-02 -1.4536E-04
  6.6444E-03 -1.6956E-02 -1.8742E-04
  1.5791E-03 -2.0911E-02 -8.7190E-05
 -4.8074E-03 -1.9164E-02 -5.2831E-04
 -8.1200E-03 -1.4777E-02 -3.1007E-04
 -9.3196E-03 -1.1274E-02 -1.0631E-04
 -8.6226E-03 -8.3803E-03  7.7550E-05
 -7.6047E-03 -6.5806E-03  1.1968E-04
 -6.1868E-03 -5.0716E-03  2.5213E-04
 -4.6925E-03 -4.1749E-03  2.3792E-04
 -3.1280E-03 -3.4772E-03  3.1038E-04
 -1.5635E-03 -3.1622E-03  2.6675E-04
 -7.0810E-04 -3.0022E-03  3.2980E-04
  6.1297E-04 -2.9582E-03  2.3343E-04
  1.2562E-03 -3.0315E-03  2.8132E-04
  2.5002E-03 -3.4200E-03  2.3038E-04
  3.6664E-03 -3.9720E-03  2.8129E-04
  4.7729E-03 -4.9245E-03  2.0610E-04
  5.6003E-03 -6.0658E-03  2.3274E-04
  6.2164E-03 -7.7024E-03  1.2484E-04
  6.1270E-03 -9.4766E-03  1.2603E-04
  5.5916E-03 -1.1633E-02  1.7266E-05
  3.6831E-03 -1.3705E-02  3.8769E-05
  9.2768E-04 -1.4947E-02 -1.2569E-04
 -2.5490E-03 -1.4814E-02 -9.6919E-05
 -5.4125E-03 -1.2615E-02 -1.2268E-04
 -6.3642E-03 -1.0140E-02  2.9083E-05
 -6.6225E-03 -8.1411E-03  9.8472E-05
 -5.9492E-03 -6.3565E-03  2.3273E-04
 -5.0601E-03 -5.1547E-03  2.2124E-04
 -3.8798E-03 -4.1562E-03  3.0068E-04
 -2.6309E-03 -3.5857E-03  2.5675E-04
 -1.3193E-03 -3.1818E-03  3.2012E-04
 -6.4631E-04 -3.1054E-03  2.6556E-04
  4.4627E-04 -2.7795E-03  2.8134E-04
  1.0444E-03 -2.9138E-03  2.2586E-04
  2.0421E-03 -3.1819E-03  2.8133E-04
  2.9938E-03 -3.7444E-03  2.2372E-04
  3.7683E-03 -4.4522E-03  2.7159E-04
  4.4108E-03 -5.4928E-03  2.0337E-04
  4.6210E-03 -6.6672E-03  2.3275E-04
  4.5605E-03 -8.0925E-03  1.5030E-04
  3.7377E-03 -9.5163E-03  1.8422E-04
  2.5046E-03 -1.0744E-02  7.6045E-05
  4.7019E-04 -1.1575E-02  1.1634E-04
 -1.7360E-03 -1.1240E-02 -5.4533E-06
 -3.4467E-03 -1.0200E-02  7.7563E-05
 -4.6515E-03 -8.6852E-03  9.5448E-05
 -4.8390E-03 -7.1034E-03  2.2304E-04
 -4.6683E-03 -5.8267E-03  2.1185E-04
 -3.9865E-03 -4.6946E-03  2.9098E-04
 -3.1653E-03 -3.9359E-03  2.5281E-04
 -2.1536E-03 -3.3371E-03  3.1043E-04
 -1.0978E-03 -3.0562E-03  2.5799E-04
 -4.7537E-04 -2.9153E-03  3.1044E-04
  4.1598E-04 -2.4789E-03  2.1951E-04
  8.5377E-04 -2.5322E-03  2.7166E-04
  1.6814E-03 -2.8117E-03  2.2011E-04
  2.3962E-03 -3.2014E-03  2.8134E-04
  3.0299E-03 -3.8284E-03  2.2160E-04
  3.3853E-03 -4.5638E-03  2.7160E-04
  3.5696E-03 -5.4949E-03  2.0398E-04
  3.2780E-03 -6.4688E-03  2.4246E-04
  2.7326E-03 -7.4317E-03  1.6698E-04
  1.6243E-03 -8.2571E-03  2.1334E-04
  2.9333E-04 -8.6133E-03  1.2727E-04
 -1.1733E-03 -8.5673E-03  1.8424E-04
 -2.5110E-03 -7.8780E-03  1.3516E-04
 -3.2683E-03 -6.9196E-03  2.3275E-04
 -3.6986E-03 -5.8718E-03  2.1004E-04
 -3.5404E-03 -4.8499E-03  2.9099E-04
 -3.1857E-03 -4.0533E-03  2.4948E-04
 -2.5223E-03 -3.3711E-03  3.1044E-04
 -1.7675E-03 -2.9529E-03  2.5527E-04
 -8.9743E-04 -2.6535E-03  3.1046E-04
 -4.3962E-04 -2.5971E-03  2.5165E-04
  2.8138E-04 -1.9648E-03  2.7167E-04
  7.1344E-04 -2.0536E-03  2.1255E-04
  1.3729E-03 -2.2218E-03  2.6196E-04
  1.9798E-03 -2.5552E-03  2.1829E-04
  2.4059E-03 -2.9686E-03  2.8134E-04
  2.7190E-03 -3.5399E-03  2.1978E-04
  2.7161E-03 -4.1565E-03  2.7161E-04
  2.5346E-03 -4.8334E-03  2.0854E-04
  1.9495E-03 -5.4751E-03  2.5218E-04
  1.1887E-03 -5.9429E-03  1.8973E-04
  1.6003E-04 -6.2313E-03  2.5216E-04
 -9.0531E-04 -6.1129E-03  1.8640E-04
 -1.7992E-03 -5.7612E-03  2.6187E-04
 -2.5119E-03 -5.1343E-03  2.1430E-04
 -2.7694E-03 -4.4281E-03  2.9100E-04
 -2.8235E-03 -3.7614E-03  2.4555E-04
 -2.5078E-03 -3.1481E-03  3.0074E-04
 -2.0695E-03 -2.6965E-03  2.5225E-04
 -1.4359E-03 -2.3334E-03  3.0077E-04
 -7.4648E-04 -2.1546E-03  2.4741E-04
 -3.0078E-04 -2.0618E-03  3.0078E-04
  2.8563E-04 -1.3906E-03  2.1165E-04
  5.9673E-04 -1.4166E-03  2.6198E-04
  1.1807E-03 -1.5555E-03  2.0740E-04
  1.6494E-03 -1.7464E-03  2.6196E-04
  2.0326E-03 -2.0465E-03  2.1890E-04
  2.1974E-03 -2.3866E-03  2.7164E-04
  2.2352E-03 -2.7918E-03  2.1858E-04
  1.9595E-03 -3.2060E-03  2.7161E-04
  1.5496E-03 -3.5781E-03  2.1098E-04
  8.6813E-04 -3.8848E-03  2.7159E-04
  1.0063E-04 -3.9993E-03  2.1279E-04
 -7.0323E-04 -3.9818E-03  2.8129E-04
 -1.4508E-03 -3.7357E-03  2.2553E-04
 -1.9352E-03 -3.3903E-03  2.9101E-04
 -2.2667E-03 -2.9645E-03  2.4464E-04
 -2.2604E-03 -2.5321E-03  3.1044E-04
 -2.1080E-03 -2.1656E-03  2.4710E-04
 -1.7076E-03 -1.8483E-03  3.0077E-04
 -1.2274E-03 -1.6379E-03  2.4257E-04
 -6.2584E-04 -1.4894E-03  2.9109E-04
 -3.0322E-04 -1.4603E-03  2.4015E-04
  2.0377E-04 -7.0833E-04  2.6199E-04
  5.4762E-04 -7.3198E-04  2.0741E-04
  1.0431E-03 -7.8594E-04  2.5228E-04
  1.4842E-03 -8.9780E-04  2.1376E-04
  1.7658E-03 -1.0333E-03  2.7166E-04
  1.9564E-03 -1.2076E-03  2.1860E-04
  1.8966E-03 -1.3970E-03  2.7164E-04
  1.7110E-03 -1.5940E-03  2.2312E-04
  1.2708E-03 -1.7752E-03  2.8132E-04
  7.3390E-04 -1.9010E-03  2.2402E-04
  6.3052E-05 -1.9740E-03  2.8131E-04
 -6.2265E-04 -1.9419E-03  2.3342E-04
 -1.2077E-03 -1.8480E-03  3.0072E-04
 -1.6943E-03 -1.6786E-03  2.4343E-04
 -1.9112E-03 -1.4843E-03  3.0074E-04
 -2.0001E-03 -1.2816E-03  2.4709E-04
 -1.8240E-03 -1.0915E-03  2.9107E-04
 -1.5354E-03 -9.4662E-04  2.3772E-04
 -1.0770E-03 -8.2960E-04  2.8139E-04
 -5.6885E-04 -7.7201E-04  2.3530E-04
 -2.1347E-04 -7.4229E-04  2.9110E-04
  2.5229E-04 -3.3962E-04  2.0862E-04
  5.1912E-04 -2.9110E-04  2.6199E-04
  1.0140E-03 -3.8448E-04  2.0740E-04
  1.4021E-03 -3.7841E-04  2.7168E-04
  1.7173E-03 -5.0453E-04  2.1830E-04
  1.8337E-03 -5.3361E-04  2.7166E-04
  1.8342E-03 -6.8214E-04  2.2253E-04
  1.5813E-03 -7.2759E-04  2.8134E-04
  1.2235E-03 -8.6459E-04  2.2676E-04
  6.6935E-04 -8.7306E-04  2.9102E-04
  5.5172E-05 -9.5369E-04  2.3221E-04
 -5.7719E-04 -8.9246E-04  3.0072E-04
 -1.1683E-03 -8.9309E-04  2.4434E-04
 -1.5716E-03 -7.6639E-04  3.0074E-04
 -1.8506E-03 -7.2398E-04  2.4618E-04
 -1.8676E-03 -5.7242E-04  3.0076E-04
 -1.7677E-03 -5.3424E-04  2.3953E-04
 -1.4457E-03 -3.9781E-04  2.9108E-04
 -1.0510E-03 -4.0450E-04  2.3348E-04
 -5.3853E-04 -3.2021E-04  2.8139E-04
 -2.5956E-04 -3.6145E-04  2.3531E-04
  3.7408E-04  1.5751E-04  4.5283E-04
  8.8935E-04  2.2672E-04  4.5006E-04
  1.7079E-03  2.0672E-04  4.4789E-04
  2.4528E-03  3.3836E-04  4.4418E-04
  2.9577E-03  3.7402E-04  4.3800E-04
  3.3183E-03  5.6007E-04  4.2351E-04
  3.2919E-03  6.3967E-04  4.1333E-04
  3.0619E-03  8.6442E-04  3.8654E-04
  2.3861E-03  9.6430E-04  3.7883E-04
  1.5266E-03  1.1417E-03  3.5145E-04
  3.8865E-04  1.1610E-03  3.6405E-04
 -7.9359E-04  1.2093E-03  3.5944E-04
 -1.8351E-03  1.0725E-03  4.0834E-04
 -2.7097E-03  9.9384E-04  4.2312E-04
 -3.1195E-03  7.5773E-04  4.6743E-04
 -3.3006E-03  6.5138E-04  4.8284E-04
 -3.0117E-03  4.3305E-04  5.0687E-04
 -2.5407E-03  3.7833E-04  5.1490E-04
 -1.7816E-03  2.2639E-04  5.2661E-04
 -9.3945E-04  2.3994E-04  5.2356E-04
 -4.0359E-04  1.6734E-04  5.2664E-04
  4.4637E-04  4.4821E-04  4.4883E-04
  9.0564E-04  4.6759E-04  4.4790E-04
  1.7832E-03  5.5832E-04  4.4604E-04
  2.5051E-03  6.8410E-04  4.4294E-04
  3.1133E-03  8.9383E-04  4.2938E-04
  3.4003E-03  1.1318E-03  4.1828E-04
  3.5071E-03  1.4417E-03  3.8626E-04
  3.1587E-03  1.7516E-03  3.6901E-04
  2.5869E-03  2.0700E-03  3.2686E-04
  1.5890E-03  2.3269E-03  3.1977E-04
  4.3783E-04  2.4739E-03  2.8287E-04
 -8.1663E-04  2.4745E-03  3.1976E-04
 -1.9958E-03  2.3033E-03  3.2900E-04
 -2.8043E-03  2.0172E-03  3.9851E-04
 -3.3676E-03  1.6720E-03  4.2314E-04
 -3.4002E-03  1.3089E-03  4.7238E-04
 -3.2020E-03  1.0196E-03  4.8841E-04
 -2.6034E-03  7.6281E-04  5.1182E-04
 -1.8773E-03  6.0536E-04  5.1892E-04
 -9.5974E-04  4.9218E-04  5.2171E-04
 -4.7619E-04  4.7188E-04  5.2356E-04
  4.3313E-04  8.1704E-04  4.4790E-04
  9.9946E-04  8.9363E-04  4.4912E-04
  1.9244E-03  1.0336E-03  4.4296E-04
  2.7874E-03  1.3303E-03  4.3155E-04
  3.4054E-03  1.6929E-03  4.1337E-04
  3.8735E-03  2.2242E-03  3.7367E-04
  3.9116E-03  2.7996E-03  3.3458E-04
  3.7105E-03  3.4759E-03  2.6167E-04
  2.9615E-03  4.1028E-03  2.1645E-04
  1.9609E-03  4.6551E-03  1.2083E-04
  5.3617E-04  4.9879E-03  9.8380E-05
 -9.7520E-04  4.9805E-03  6.0258E-05
 -2.2924E-03  4.6191E-03  1.6233E-04
 -3.3770E-03  4.0150E-03  2.1554E-04
 -3.8277E-03  3.2619E-03  3.3456E-04
 -3.9695E-03  2.5718E-03  3.8779E-04
 -3.5578E-03  1.9191E-03  4.5764E-04
 -2.9540E-03  1.4693E-03  4.8751E-04
 -2.0523E-03  1.1073E-03  5.1184E-04
 -1.0702E-03  9.4035E-04  5.1985E-04
 -4.6264E-04  8.5146E-04  5.2663E-04
  5.5586E-04  1.1262E-03  4.5189E-04
  1.1222E-03  1.1714E-03  4.5280E-04
  2.2135E-03  1.4362E-03  4.3710E-04
  3.1644E-03  1.7963E-03  4.1831E-04
  4.0071E-03  2.4054E-03  3.7030E-04
  4.5071E-03  3.1146E-03  3.1491E-04
  4.7827E-03  4.0638E-03  2.0848E-04
  4.4618E-03  5.0325E-03  1.0823E-04
  3.8232E-03  6.0895E-03 -5.7797E-05
  2.4740E-03  6.9498E-03 -1.8690E-04
  8.0291E-04  7.5272E-03 -3.9316E-04
 -1.1853E-03  7.5299E-03 -3.8363E-04
 -3.0323E-03  6.9404E-03 -3.2370E-04
 -4.1615E-03  5.8831E-03 -7.3785E-05
 -4.8734E-03  4.7562E-03  6.1801E-05
 -4.7429E-03  3.5572E-03  2.6568E-04
 -4.3055E-03  2.6925E-03  3.6997E-04
 -3.4152E-03  1.9438E-03  4.6258E-04
 -2.3952E-03  1.5139E-03  4.9552E-04
 -1.2156E-03  1.2058E-03  5.1676E-04
 -5.9982E-04  1.1535E-03  5.1862E-04
  5.8076E-04  1.2304E-03  4.5280E-04
  1.3030E-03  1.3568E-03  4.4818E-04
  2.5493E-03  1.6044E-03  4.3308E-04
  3.7437E-03  2.1422E-03  3.9030E-04
  4.7238E-03  2.8195E-03  3.2968E-04
  5.5411E-03  3.8530E-03  2.0357E-04
  5.8294E-03  4.9981E-03  5.9032E-05
  5.7961E-03  6.4635E-03 -1.8414E-04
  4.8787E-03  7.8492E-03 -4.1312E-04
  3.4961E-03  9.1824E-03 -8.2339E-04
  1.1162E-03  9.9821E-03 -1.1654E-03
 -1.6218E-03  1.0058E-02 -1.4408E-03
 -3.9390E-03  8.9649E-03 -1.0966E-03
 -5.6836E-03  7.6020E-03 -8.7329E-04
 -6.1535E-03  5.6961E-03 -3.3449E-04
 -6.0471E-03  4.3080E-03 -1.2299E-06
 -5.1712E-03  3.0259E-03  2.7553E-04
 -4.1058E-03  2.2488E-03  4.0043E-04
 -2.7903E-03  1.6289E-03  4.8227E-04
 -1.4177E-03  1.3577E-03  5.0721E-04
 -6.2995E-04  1.2156E-03  5.1676E-04
  7.3455E-04  1.2162E-03  4.5402E-04
  1.4961E-03  1.2796E-03  4.4785E-04
  2.9804E-03  1.6375E-03  4.1769E-04
  4.3795E-03  2.1455E-03  3.6906E-04
  5.6986E-03  3.0419E-03  2.5309E-04
  6.6856E-03  4.1177E-03  9.3471E-05
  7.4245E-03  5.7030E-03 -1.9306E-04
  7.3129E-03  7.3965E-03 -5.2621E-04
  6.6617E-03  9.4153E-03 -1.0590E-03
  4.6067E-03  1.1101E-02 -1.6224E-03
  1.7163E-03  1.2293E-02 -2.6737E-03
 -2.2024E-03  1.1838E-02 -3.2151E-03
 -5.7213E-03  1.0474E-02 -2.7453E-03
 -7.4300E-03  7.9562E-03 -2.1489E-03
 -8.1885E-03  6.0620E-03 -1.0021E-03
 -7.4131E-03  4.2304E-03 -2.6563E-04
 -6.3039E-03  3.0682E-03  1.2269E-04
 -4.8123E-03  2.1011E-03  3.6412E-04
 -3.2522E-03  1.5815E-03  4.5519E-04
 -1.6289E-03  1.2106E-03  5.0689E-04
 -7.9941E-04  1.1451E-03  5.1397E-04
  7.7759E-04  9.3015E-04  4.6262E-04
  1.7086E-03  1.0682E-03  4.4415E-04
  3.4152E-03  1.3385E-03  4.1337E-04
  5.1076E-03  1.9495E-03  3.2876E-04
  6.6960E-03  2.7453E-03  1.9680E-04
  8.1727E-03  4.0902E-03 -7.9627E-05
  9.1083E-03  5.6607E-03 -4.3279E-04
  9.6115E-03  7.9763E-03 -1.0722E-03
  8.5833E-03  1.0343E-02 -1.7747E-03
  6.6043E-03  1.2738E-02 -3.1321E-03
  1.8528E-03  1.3884E-02 -4.8408E-03
 -3.7315E-03  1.3038E-02 -5.0286E-03
 -7.8203E-03  1.0204E-02 -4.5025E-03
 -1.0218E-02  7.4468E-03 -2.4846E-03
 -9.8794E-03  5.2126E-03 -1.2441E-03
 -8.9563E-03  3.7062E-03 -4.2362E-04
 -7.3006E-03  2.4795E-03  8.3633E-05
 -5.5326E-03  1.7393E-03  3.2197E-04
 -3.6808E-03  1.1761E-03  4.5764E-04
 -1.8356E-03  9.2487E-04  5.0226E-04
 -8.3661E-04  7.9724E-04  5.2165E-04
  9.2522E-04  5.2351E-04  4.5707E-04
  1.9045E-03  5.7579E-04  4.4783E-04
  3.8211E-03  8.7316E-04  3.9829E-04
  5.7864E-03  1.3088E-03  3.1490E-04
  7.7638E-03  2.1699E-03  9.7470E-05
  9.6012E-03  3.2561E-03 -2.1642E-04
  1.1269E-02  5.1621E-03 -8.4611E-04
  1.1995E-02  7.3545E-03 -1.6272E-03
  1.1826E-02  1.0873E-02 -3.2099E-03
  8.1467E-03  1.4018E-02 -4.6581E-03
  2.0797E-03  1.5353E-02 -6.7249E-03
 -5.8810E-03  1.3482E-02 -7.3206E-03
 -1.1757E-02  9.5545E-03 -4.3798E-03
 -1.2422E-02  6.3215E-03 -2.0252E-03
 -1.1881E-02  4.1282E-03 -1.0197E-03
 -1.0146E-02  2.5821E-03 -2.7542E-04
 -8.2110E-03  1.6695E-03  1.0823E-04
 -6.1157E-03  9.9387E-04  3.5917E-04
 -4.0325E-03  6.2862E-04  4.5824E-04
 -2.0078E-03  3.8384E-04  5.1671E-04
 -9.8208E-04  3.3679E-04  5.2380E-04
  9.4490E-04 -1.0335E-04  4.6261E-04
  2.0371E-03 -3.2603E-05  4.4445E-04
  4.1483E-03  1.0826E-04  4.0351E-04
  6.3250E-03  4.6650E-04  2.7215E-04
  8.6434E-03  9.5929E-04  5.4114E-05
  1.1007E-02  1.9707E-03 -4.6816E-04
  1.3207E-02  3.2452E-03 -1.2194E-03
  1.5183E-02  5.7722E-03 -2.8018E-03
  1.5247E-02  8.5840E-03 -5.0610E-03
  1.2402E-02  1.4321E-02 -7.9352E-03
  1.3162E-03  1.8195E-02 -9.8810E-03
 -1.0599E-02  1.4099E-02 -7.1003E-03
 -1.4980E-02  8.4753E-03 -3.9600E-03
 -1.5658E-02  5.0600E-03 -2.1254E-03
 -1.3619E-02  2.4927E-03 -6.5391E-04
 -1.1301E-02  1.2950E-03 -1.6353E-04
 -8.8890E-03  5.0668E-04  2.2628E-04
 -6.5265E-03  1.2300E-04  3.8008E-04
 -4.2908E-03 -1.3778E-04  4.8715E-04
 -2.1145E-03 -2.4913E-04  5.2009E-04
 -9.8423E-04 -3.0019E-04  5.3641E-04
  1.0236E-03 -7.9234E-04  4.5892E-04
  2.1161E-03 -7.8740E-04  4.5276E-04
  4.2760E-03 -7.5228E-04  3.9460E-04
  6.6375E-03 -6.9376E-04  2.8538E-04
  9.1280E-03 -5.2146E-04 -2.9516E-05
  1.1887E-02 -2.5083E-04 -5.7051E-04
  1.4702E-02  4.6217E-04 -1.7878E-03
  1.7335E-02  1.3074E-03 -3.6321E-03
  1.9834E-02  3.6447E-03 -7.0677E-03
  1.7756E-02  6.7126E-03 -1.2993E-02
  2.6118E-03  1.0750E-02 -9.2221E-03
 -1.5599E-02  1.1165E-02 -6.3928E-03
 -2.1033E-02  4.6600E-03 -3.8832E-03
 -1.8405E-02  1.3564E-03 -2.3492E-03
 -1.5212E-02  2.4705E-04 -9.6394E-04
 -1.2133E-02 -5.6065E-04 -4.4262E-05
 -9.2586E-03 -8.0368E-04  2.2874E-04
 -6.7602E-03 -9.3974E-04  4.2313E-04
 -4.3770E-03 -9.7246E-04  4.9084E-04
 -2.1702E-03 -9.8914E-04  5.3148E-04
 -1.0535E-03 -9.8825E-04  5.3549E-04
  9.5477E-04 -1.4961E-03  4.6262E-04
  2.0688E-03 -1.5533E-03  4.4908E-04
  4.2419E-03 -1.6584E-03  4.1829E-04
  6.5134E-03 -1.8974E-03  2.8293E-04
  9.0864E-03 -2.1990E-03  5.4115E-05
  1.1836E-02 -2.7352E-03 -6.0404E-04
  1.4765E-02 -3.3041E-03 -1.7848E-03
  1.7655E-02 -4.3037E-03 -3.8494E-03
  2.0654E-02 -5.4680E-03 -7.1286E-03
  1.9495E-02 -7.2769E-03 -8.2829E-03
  5.7675E-03 -5.2865E-03 -6.8179E-03
 -1.7441E-02 -4.9723E-03 -3.4078E-03
 -2.4792E-02 -4.9467E-03 -3.0162E-03
 -1.8682E-02 -4.2706E-03 -1.8347E-03
 -1.5537E-02 -3.2843E-03 -1.0767E-03
 -1.2109E-02 -2.7191E-03 -2.1087E-04
 -9.2681E-03 -2.3023E-03  2.6073E-04
 -6.6464E-03 -2.0358E-03  4.1054E-04
 -4.3402E-03 -1.8257E-03  5.0685E-04
 -2.1229E-03 -1.7264E-03  5.2996E-04
 -9.8428E-04 -1.6733E-03  5.4135E-04
  9.4374E-04 -2.1588E-03  4.6203E-04
  1.9539E-03 -2.2098E-03  4.5771E-04
  3.9503E-03 -2.4963E-03  4.1800E-04
  6.0968E-03 -2.9081E-03  3.4445E-04
  8.3352E-03 -3.7311E-03  1.2577E-04
  1.0782E-02 -4.7565E-03 -2.3118E-04
  1.3274E-02 -6.7001E-03 -1.2377E-03
  1.5170E-02 -8.8338E-03 -2.7725E-03
  1.6621E-02 -1.3256E-02 -4.0249E-03
  1.7939E-02 -1.7497E-02 -4.8188E-03
  5.3270E-03 -2.0925E-02 -2.8177E-03
 -1.5258E-02 -1.9231E-02  3.1430E-04
 -2.0604E-02 -1.3179E-02 -9.6795E-04
 -1.6742E-02 -8.8725E-03 -9.2411E-04
 -1.3736E-02 -6.5992E-03 -5.9591E-04
 -1.1151E-02 -4.7120E-03 -9.3454E-05
 -8.6019E-03 -3.7531E-03  2.3461E-04
 -6.2836E-03 -3.0163E-03  4.2809E-04
 -4.0723E-03 -2.6325E-03  4.9550E-04
 -2.0178E-03 -2.3623E-03  5.3152E-04
 -9.7633E-04 -2.3162E-03  5.3461E-04
  7.9736E-04 -2.6136E-03  4.6267E-04
  1.7507E-03 -2.7575E-03  4.5189E-04
  3.5435E-03 -3.0465E-03  4.3802E-04
  5.3634E-03 -3.7197E-03  3.7400E-04
  7.2379E-03 -4.6006E-03  2.8046E-04
  9.1179E-03 -6.1810E-03  4.9195E-06
  1.0688E-02 -8.0857E-03 -3.6887E-04
  1.1858E-02 -1.1373E-02 -1.0655E-03
  1.1989E-02 -1.4614E-02 -1.2732E-03
  1.1606E-02 -2.0188E-02 -1.8029E-03
  4.0337E-03 -2.6359E-02 -1.3167E-03
 -9.2010E-03 -2.2689E-02 -7.1767E-04
 -1.4431E-02 -1.5438E-02 -7.5693E-04
 -1.3134E-02 -1.1326E-02 -4.9228E-04
 -1.1375E-02 -8.0853E-03 -1.7213E-04
 -9.5403E-03 -6.2207E-03  7.4711E-05
 -7.5722E-03 -4.6890E-03  3.1489E-04
 -5.5958E-03 -3.8381E-03  4.3397E-04
 -3.6862E-03 -3.1891E-03  5.0691E-04
 -1.8214E-03 -2.9060E-03  5.2294E-04
 -8.3672E-04 -2.7661E-03  5.3157E-04
  7.4112E-04 -2.9340E-03  4.5008E-04
  1.5210E-03 -3.0075E-03  4.4792E-04
  3.0396E-03 -3.4254E-03  4.3436E-04
  4.5426E-03 -4.0209E-03  4.1341E-04
  6.0205E-03 -5.0990E-03  3.4262E-04
  7.2966E-03 -6.4307E-03  2.6077E-04
  8.3653E-03 -8.5255E-03  3.7202E-05
  8.6415E-03 -1.0855E-02 -9.3448E-05
  8.3979E-03 -1.4024E-02 -3.6942E-04
  6.1948E-03 -1.7311E-02 -3.4415E-04
  2.0693E-03 -2.0495E-02 -6.3877E-04
 -4.3409E-03 -2.0436E-02 -8.8981E-04
 -9.0090E-03 -1.5412E-02 -6.4504E-04
 -9.3884E-03 -1.1297E-02 -2.8033E-04
 -8.9883E-03 -8.7664E-03  1.2913E-05
 -7.7539E-03 -6.6174E-03  2.5092E-04
 -6.3620E-03 -5.2726E-03  3.7398E-04
 -4.7836E-03 -4.1783E-03  4.6754E-04
 -3.1872E-03 -3.5785E-03  4.9834E-04
 -1.5948E-03 -3.1600E-03  5.1683E-04
 -7.7710E-04 -3.0826E-03  5.1684E-04
  5.7103E-04 -2.9536E-03  4.3812E-04
  1.2805E-03 -3.1123E-03  4.3626E-04
  2.5301E-03 -3.4210E-03  4.3317E-04
  3.7543E-03 -4.0893E-03  4.1683E-04
  4.8280E-03 -4.9461E-03  3.9372E-04
  5.7827E-03 -6.2729E-03  3.3462E-04
  6.2634E-03 -7.8084E-03  2.7553E-04
  6.4089E-03 -9.8095E-03  1.5250E-04
  5.5337E-03 -1.1899E-02  8.8538E-05
  4.0290E-03 -1.3981E-02 -5.8712E-05
  9.0982E-04 -1.5629E-02 -1.8688E-04
 -2.6997E-03 -1.4985E-02 -3.8361E-04
 -5.2923E-03 -1.2965E-02 -3.9840E-04
 -6.8119E-03 -1.0518E-02 -8.2705E-05
 -6.6961E-03 -8.2263E-03  1.9188E-04
 -6.1728E-03 -6.5886E-03  3.3523E-04
 -5.1330E-03 -5.1773E-03  4.4293E-04
 -3.9708E-03 -4.2839E-03  4.7373E-04
 -2.6679E-03 -3.5883E-03  4.9715E-04
 -1.3457E-03 -3.2658E-03  5.0117E-04
 -6.0056E-04 -3.1012E-03  5.0210E-04
  5.1384E-04 -2.8479E-03  4.2338E-04
  1.0535E-03 -2.9144E-03  4.2337E-04
  2.0885E-03 -3.2619E-03  4.2151E-04
  3.0175E-03 -3.7558E-03  4.1841E-04
  3.8727E-03 -4.5714E-03  4.0392E-04
  4.4343E-03 -5.5417E-03  3.8881E-04
  4.7974E-03 -6.8415E-03  3.4017E-04
  4.5515E-03 -8.2369E-03  3.0015E-04
  3.9526E-03 -9.7158E-03  2.2448E-04
  2.4647E-03 -1.1059E-02  1.6235E-04
  5.6359E-04 -1.1721E-02  6.6105E-05
 -1.6776E-03 -1.1679E-02  0.0000E+00
 -3.6911E-03 -1.0490E-02  2.1832E-05
 -4.6497E-03 -8.8763E-03  1.7713E-04
 -5.0799E-03 -7.3291E-03  3.0848E-04
 -4.7049E-03 -5.8811E-03  4.2325E-04
 -4.1071E-03 -4.8300E-03  4.5713E-04
 -3.1946E-03 -3.9477E-03  4.8239E-04
 -2.2004E-03 -3.4256E-03  4.8550E-04
 -1.1076E-03 -3.0571E-03  4.8736E-04
 -5.4122E-04 -2.9867E-03  4.8645E-04
  3.6432E-04 -2.4813E-03  4.0863E-04
  8.7387E-04 -2.5915E-03  4.0863E-04
  1.6886E-03 -2.8160E-03  4.0862E-04
  2.4568E-03 -3.2786E-03  4.1075E-04
  3.0421E-03 -3.8543E-03  4.0857E-04
  3.4941E-03 -4.6662E-03  3.9808E-04
  3.5683E-03 -5.5714E-03  3.8390E-04