# vtk DataFile Version 3.0
model R-SWMS
ASCII
DATASET RECTILINEAR_GRID
DIMENSIONS      21    21    21
X_COORDINATES      21 float
 -5.0000E+00 -4.5000E+00 -4.0000E+00 -3.5000E+00 -3.0000E+00 -2.5000E+00 -2.0000E+00 -1.5000E+00 -1.0000E+00 -5.0000E-01  0.0000E+00  5.0000E-01  1.0000E+00  1.5000E+00  2.0000E+00  2.5000E+00  3.0000E+00  3.5000E+00  4.0000E+00  4.5000E+00  5.0000E+00
Y_COORDINATES      21 float
-5.0000E+00-4.5000E+00-4.0000E+00-3.5000E+00-3.0000E+00-2.5000E+00-2.0000E+00-1.5000E+00-1.0000E+00-5.0000E-01 0.0000E+00 5.0000E-01 1.0000E+00 1.5000E+00 2.0000E+00 2.5000E+00 3.0000E+00 3.5000E+00 4.0000E+00 4.5000E+00 5.0000E+00
Z_COORDINATES      21 float
 0.0000E+00-5.0000E-01-1.0000E+00-1.5000E+00-2.0000E+00-2.5000E+00-3.0000E+00-3.5000E+00-4.0000E+00-4.5000E+00-5.0000E+00-5.5000E+00-6.0000E+00-6.5000E+00-7.0000E+00-7.5000E+00-8.0000E+00-8.5000E+00-9.0000E+00-9.5000E+00-1.0000E+01
     POINT_DATA    9261
SCALARS velocity float 3
LOOKUP_TABLE default
  4.2866E-04  2.1086E-04  2.4793E-04
  8.7122E-04  1.5756E-04  3.0585E-04
  1.7047E-03  2.6008E-04  2.4734E-04
  2.3864E-03  2.6876E-04  2.9656E-04
  2.9596E-03  4.2396E-04  2.3399E-04
  3.2200E-03  4.9111E-04  2.7799E-04
  3.3020E-03  6.8796E-04  2.2006E-04
  2.9555E-03  7.8751E-04  2.5941E-04
  2.4046E-03  9.8142E-04  1.9281E-04
  1.4637E-03  1.0375E-03  2.5938E-04
  3.9659E-04  1.1666E-03  1.7890E-04
 -7.5498E-04  1.1024E-03  2.5938E-04
 -1.8406E-03  1.0856E-03  1.9512E-04
 -2.5940E-03  8.9864E-04  2.8719E-04
 -3.1374E-03  7.9332E-04  2.3973E-04
 -3.1874E-03  5.7447E-04  3.1503E-04
 -3.0191E-03  4.8707E-04  2.7046E-04
 -2.4650E-03  3.0581E-04  3.3361E-04
 -1.7805E-03  2.8498E-04  2.8034E-04
 -9.1288E-04  1.7609E-04  3.3364E-04
 -4.5413E-04  2.2243E-04  2.8267E-04
  3.8000E-04  4.3098E-04  2.9659E-04
  9.0481E-04  4.6457E-04  2.4850E-04
  1.7377E-03  5.3290E-04  2.9657E-04
  2.4999E-03  6.7942E-04  2.3864E-04
  3.0256E-03  8.5718E-04  2.7800E-04
  3.4047E-03  1.1131E-03  2.2239E-04
  3.3911E-03  1.3852E-03  2.6869E-04
  3.1688E-03  1.7044E-03  1.9253E-04
  2.4827E-03  1.9917E-03  2.3160E-04
  1.5991E-03  2.2360E-03  1.5458E-04
  4.1685E-04  2.3714E-03  2.1305E-04
 -8.1575E-04  2.3639E-03  1.4590E-04
 -1.8990E-03  2.2047E-03  2.3159E-04
 -2.8128E-03  1.9374E-03  1.9339E-04
 -3.2334E-03  1.5935E-03  2.7794E-04
 -3.4063E-03  1.2804E-03  2.4670E-04
 -3.0996E-03  9.7296E-04  3.1505E-04
 -2.6040E-03  7.5700E-04  2.7106E-04
 -1.8211E-03  5.7458E-04  3.3363E-04
 -9.5661E-04  4.9322E-04  2.8238E-04
 -4.0779E-04  4.4949E-04  3.3364E-04
  4.7847E-04  8.2255E-04  2.4908E-04
  9.7315E-04  8.5729E-04  3.0585E-04
  1.9178E-03  1.0328E-03  2.4154E-04
  2.7107E-03  1.2742E-03  2.8728E-04
  3.3950E-03  1.6767E-03  2.2008E-04
  3.7480E-03  2.1357E-03  2.5944E-04
  3.9054E-03  2.7369E-03  1.7806E-04
  3.5620E-03  3.3350E-03  2.1307E-04
  2.9605E-03  3.9627E-03  1.0392E-04
  1.8433E-03  4.4507E-03  1.3894E-04
  5.3664E-04  4.7493E-03  2.4893E-05
 -9.2162E-04  4.7285E-03  1.0189E-04
 -2.2940E-03  4.4042E-03  5.2393E-05
 -3.2052E-03  3.8073E-03  1.7601E-04
 -3.8204E-03  3.1551E-03  1.5576E-04
 -3.8080E-03  2.4367E-03  2.6869E-04
 -3.5460E-03  1.8897E-03  2.3976E-04
 -2.8634E-03  1.3993E-03  3.1507E-04
 -2.0408E-03  1.1066E-03  2.7425E-04
 -1.0380E-03  8.9432E-04  3.3363E-04
 -5.1726E-04  8.5669E-04  2.8209E-04
  4.9120E-04  1.0751E-03  2.9657E-04
  1.1116E-03  1.1788E-03  2.4560E-04
  2.1547E-03  1.3716E-03  2.8729E-04
  3.1403E-03  1.7908E-03  2.2530E-04
  3.8871E-03  2.3073E-03  2.5945E-04
  4.4736E-03  3.0676E-03  1.6822E-04
  4.5904E-03  3.8863E-03  1.7602E-04
  4.4336E-03  4.8880E-03  5.2105E-05
  3.5984E-03  5.8028E-03  3.7049E-05
  2.4361E-03  6.6367E-03 -1.2416E-04
  6.9459E-04  7.0848E-03 -1.2966E-04
 -1.1860E-03  7.0860E-03 -2.4369E-04
 -2.8202E-03  6.4739E-03 -1.0188E-04
 -4.1279E-03  5.6035E-03 -8.7704E-05
 -4.6039E-03  4.4418E-03  1.0190E-04
 -4.6933E-03  3.4751E-03  1.2478E-04
 -4.1370E-03  2.5387E-03  2.5017E-04
 -3.3785E-03  1.9306E-03  2.4121E-04
 -2.3260E-03  1.4410E-03  3.2434E-04
 -1.2004E-03  1.2126E-03  2.7599E-04
 -5.2825E-04  1.0936E-03  3.3363E-04
  6.2847E-04  1.2378E-03  2.4501E-04
  1.2697E-03  1.2928E-03  2.9656E-04
  2.5186E-03  1.6081E-03  2.3139E-04
  3.6463E-03  2.0479E-03  2.6873E-04
  4.6666E-03  2.7991E-03  1.7633E-04
  5.3270E-03  3.6733E-03  1.7602E-04
  5.7570E-03  4.8909E-03  2.7789E-05
  5.4784E-03  6.1360E-03 -1.8524E-05
  4.7863E-03  7.5379E-03 -2.4454E-04
  3.1252E-03  8.6301E-03 -3.4261E-04
  1.0119E-03  9.3482E-03 -6.3745E-04
 -1.5324E-03  9.1622E-03 -6.3890E-04
 -3.8857E-03  8.3786E-03 -6.2621E-04
 -5.2371E-03  6.8578E-03 -3.6118E-04
 -6.0034E-03  5.4766E-03 -1.9306E-04
 -5.7110E-03  4.0019E-03  6.4846E-05
 -5.0748E-03  2.9931E-03  1.3434E-04
 -3.9612E-03  2.1219E-03  2.6871E-04
 -2.7397E-03  1.6353E-03  2.5454E-04
 -1.3854E-03  1.2835E-03  3.2435E-04
 -6.8172E-04  1.2227E-03  2.7512E-04
  6.6725E-04  1.1492E-03  2.9656E-04
  1.4723E-03  1.2893E-03  2.4211E-04
  2.9098E-03  1.5568E-03  2.8727E-04
  4.3087E-03  2.1433E-03  1.9690E-04
  5.5126E-03  2.8814E-03  1.9456E-04
  6.5647E-03  4.0629E-03  4.9502E-05
  7.0530E-03  5.3858E-03 -2.7786E-05
  7.1560E-03  7.1594E-03 -2.8939E-04
  6.0923E-03  8.8283E-03 -4.7220E-04
  4.3598E-03  1.0447E-02 -9.2461E-04
  1.2266E-03  1.1178E-02 -1.2219E-03
 -2.2778E-03  1.0929E-02 -1.4499E-03
 -5.1243E-03  9.3645E-03 -1.2498E-03
 -7.1503E-03  7.6034E-03 -8.6199E-04
 -7.4598E-03  5.5937E-03 -4.1675E-04
 -7.1534E-03  4.1639E-03 -1.3170E-04
 -6.0171E-03  2.8858E-03  1.3896E-04
 -4.6938E-03  2.1076E-03  1.8560E-04
 -3.1644E-03  1.4919E-03  3.0579E-04
 -1.5982E-03  1.2206E-03  2.6671E-04
 -7.2282E-04  1.0796E-03  3.3361E-04
  8.2420E-04  9.4120E-04  2.4384E-04
  1.6773E-03  1.0008E-03  2.9654E-04
  3.3458E-03  1.3471E-03  2.2066E-04
  4.9709E-03  1.8346E-03  2.4090E-04
  6.5472E-03  2.7379E-03  9.8722E-05
  7.8315E-03  3.8301E-03  3.7050E-05
  8.8683E-03  5.5460E-03 -2.4830E-04
  8.9208E-03  7.3931E-03 -4.8145E-04
  8.2626E-03  9.8090E-03 -1.0249E-03
  5.4744E-03  1.1699E-02 -1.4901E-03
  1.5241E-03  1.2719E-02 -2.1846E-03
 -3.3455E-03  1.1864E-02 -2.3414E-03
 -7.4735E-03  9.7522E-03 -1.8043E-03
 -9.0078E-03  7.1840E-03 -1.1387E-03
 -9.4448E-03  5.2147E-03 -5.8250E-04
 -8.4190E-03  3.5519E-03 -1.3893E-04
 -7.0713E-03  2.4939E-03  4.1397E-05
 -5.3551E-03  1.6492E-03  2.3162E-04
 -3.5920E-03  1.1869E-03  2.3947E-04
 -1.7977E-03  8.6642E-04  3.2433E-04
 -8.8034E-04  8.0853E-04  2.7337E-04
  8.5256E-04  4.7725E-04  3.0581E-04
  1.8592E-03  5.8439E-04  2.3746E-04
  3.7435E-03  8.0152E-04  2.7799E-04
  5.6422E-03  1.3212E-03  1.5838E-04
  7.5082E-03  2.0010E-03  1.2043E-04
  9.3018E-03  3.2266E-03 -1.3545E-04
  1.0616E-02  4.6761E-03 -3.7038E-04
  1.1496E-02  7.0776E-03 -9.4770E-04
  1.0398E-02  9.5137E-03 -1.5733E-03
  7.7203E-03  1.2683E-02 -2.6401E-03
  1.3923E-03  1.4039E-02 -3.2010E-03
 -5.6136E-03  1.2570E-02 -2.9340E-03
 -9.8043E-03  9.3694E-03 -2.0636E-03
 -1.1829E-02  6.4195E-03 -1.1666E-03
 -1.1092E-02  4.0739E-03 -4.5368E-04
 -9.8067E-03  2.6606E-03 -1.6062E-04
 -7.9200E-03  1.6071E-03  1.2968E-04
 -5.9514E-03  1.0156E-03  1.8008E-04
 -3.9472E-03  5.7911E-04  3.0577E-04
 -1.9601E-03  3.8832E-04  2.7017E-04
 -9.0813E-04  2.9653E-04  3.3360E-04
  9.7419E-04 -9.8462E-05  2.4905E-04
  2.0016E-03 -6.4867E-05  2.9654E-04
  4.0391E-03  1.1959E-04  2.0820E-04
  6.1705E-03  3.9376E-04  2.1309E-04
  8.3460E-03  9.6426E-04  4.3422E-06
  1.0507E-02  1.7041E-03 -1.6670E-04
  1.2558E-02  3.1480E-03 -7.0597E-04
  1.3759E-02  4.7945E-03 -1.3421E-03
  1.4143E-02  8.0665E-03 -2.6451E-03
  9.9989E-03  1.1322E-02 -4.3566E-03
  2.1748E-03  1.5626E-02 -4.8007E-03
 -8.0142E-03  1.5080E-02 -3.2464E-03
 -1.4604E-02  8.8790E-03 -1.9825E-03
 -1.4304E-02  4.5719E-03 -1.0273E-03
 -1.3058E-02  2.6122E-03 -4.9444E-04
 -1.0886E-02  1.2178E-03 -1.8521E-05
 -8.6295E-03  5.5172E-04  8.6261E-05
 -6.3833E-03  8.8013E-05  2.5941E-04
 -4.1890E-03 -1.3291E-04  2.4931E-04
 -2.0803E-03 -2.7799E-04  3.3359E-04
 -1.0106E-03 -3.0406E-04  2.7974E-04
  9.5451E-04 -8.0160E-04  3.1508E-04
  2.0590E-03 -7.9058E-04  2.4210E-04
  4.2022E-03 -7.6446E-04  2.7798E-04
  6.4174E-03 -6.8648E-04  1.3521E-04
  8.8186E-03 -5.6506E-04  5.5580E-05
  1.1301E-02 -2.4889E-04 -3.4150E-04
  1.3707E-02  1.7591E-04 -8.1473E-04
  1.5966E-02  1.2483E-03 -1.9054E-03
  1.6925E-02  2.5626E-03 -3.4322E-03
  1.6285E-02  7.0044E-03 -5.5115E-03
  5.1491E-03  1.3682E-02 -7.3770E-03
 -1.3799E-02  1.0051E-02 -3.0836E-03
 -2.0313E-02  3.9174E-03 -2.1923E-03
 -1.7228E-02  1.5336E-03 -1.3121E-03
 -1.4447E-02 -1.8515E-05 -4.1660E-04
 -1.1641E-02 -5.1888E-04 -1.2010E-04
 -9.0498E-03 -8.2903E-04  1.7599E-04
 -6.5770E-03 -9.2907E-04  1.9890E-04
 -4.3132E-03 -9.8218E-04  3.1504E-04
 -2.1191E-03 -9.9326E-04  2.7684E-04
 -9.9154E-04 -1.0008E-03  3.3360E-04
  9.8755E-04 -1.5135E-03  2.5196E-04
  2.0388E-03 -1.5383E-03  3.0581E-04
  4.1250E-03 -1.6706E-03  2.1110E-04
  6.3699E-03 -1.8577E-03  2.1310E-04
  8.7176E-03 -2.1920E-03 -1.3316E-05
  1.1248E-02 -2.5793E-03 -2.3153E-04
  1.3809E-02 -3.2232E-03 -9.1892E-04
  1.6146E-02 -3.8548E-03 -1.8048E-03
  1.8359E-02 -4.8772E-03 -3.4126E-03
  2.1120E-02 -5.0905E-03 -5.6592E-03
  6.2447E-03 -4.1797E-03 -2.9009E-03
 -1.7777E-02 -2.0291E-03 -4.1507E-03
 -2.2845E-02 -3.8853E-03 -1.9752E-03
 -1.8240E-02 -3.7388E-03 -1.2031E-03
 -1.4649E-02 -3.2186E-03 -5.5519E-04
 -1.1697E-02 -2.6718E-03 -2.7783E-05
 -8.9468E-03 -2.3115E-03  9.7554E-05
 -6.5364E-03 -2.0105E-03  2.6868E-04
 -4.2341E-03 -1.8382E-03  2.5424E-04
 -2.0989E-03 -1.7144E-03  3.4287E-04
 -1.0205E-03 -1.6912E-03  2.8149E-04
  8.8043E-04 -2.1269E-03  3.0583E-04
  1.9097E-03 -2.2323E-03  2.4269E-04
  3.8828E-03 -2.4418E-03  2.7801E-04
  5.9203E-03 -2.9309E-03  1.6331E-04
  8.0969E-03 -3.5528E-03  1.2970E-04
  1.0321E-02 -4.7043E-03 -1.8959E-04
  1.2431E-02 -6.0188E-03 -5.3706E-04
  1.4321E-02 -8.4632E-03 -1.2708E-03
  1.5689E-02 -1.0868E-02 -1.9710E-03
  1.6897E-02 -1.6093E-02 -2.9963E-03
  8.2104E-03 -2.0614E-02 -3.9388E-03
 -1.3882E-02 -1.7493E-02 -2.1959E-04
 -2.2024E-02 -1.1523E-02 -1.1102E-04
 -1.6154E-02 -8.6519E-03 -5.4783E-04
 -1.3379E-02 -6.0601E-03 -2.3148E-04
 -1.0755E-02 -4.7212E-03 -4.9782E-05
 -8.3885E-03 -3.6361E-03  1.9454E-04
 -6.1150E-03 -3.0405E-03  2.1455E-04
 -4.0171E-03 -2.5854E-03  3.2433E-04
 -1.9748E-03 -2.3855E-03  2.7541E-04
 -9.1748E-04 -2.2844E-03  3.3363E-04
  8.3936E-04 -2.6409E-03  2.4735E-04
  1.7239E-03 -2.7063E-03  3.0585E-04
  3.4663E-03 -3.0771E-03  2.2850E-04
  5.2588E-03 -3.6000E-03  2.5946E-04
  7.0621E-03 -4.6057E-03  1.2653E-04
  8.7817E-03 -5.8267E-03  6.4844E-05
  1.0360E-02 -7.9311E-03 -2.4716E-04
  1.1296E-02 -1.0212E-02 -4.6294E-04
  1.1787E-02 -1.4074E-02 -8.4145E-04
  1.1373E-02 -1.7929E-02 -7.8656E-04
  4.2969E-03 -2.3740E-02 -8.9014E-04
 -8.6876E-03 -2.4564E-02 -9.8996E-04
 -1.4445E-02 -1.6163E-02 -2.7621E-04
 -1.2776E-02 -1.0670E-02 -1.6665E-04
 -1.1108E-02 -8.0713E-03 -1.0013E-04
 -9.2723E-03 -5.9237E-03  1.1116E-04
 -7.3832E-03 -4.7068E-03  1.5895E-04
 -5.4856E-03 -3.7343E-03  2.8725E-04
 -3.6119E-03 -3.2163E-03  2.6180E-04
 -1.7980E-03 -2.8545E-03  3.3364E-04
 -8.7699E-04 -2.7909E-03  2.7688E-04
  6.7663E-04 -2.8826E-03  2.9660E-04
  1.4943E-03 -3.0422E-03  2.4128E-04
  2.9890E-03 -3.3505E-03  2.9658E-04
  4.4724E-03 -4.0409E-03  2.1981E-04
  5.8702E-03 -4.9296E-03  2.4092E-04
  7.1773E-03 -6.4031E-03  1.1697E-04
  8.0450E-03 -8.1052E-03  8.3368E-05
  8.5710E-03 -1.0637E-02 -1.1721E-04
  7.9723E-03 -1.3264E-02 -1.4815E-04
  6.6519E-03 -1.6994E-02 -1.8486E-04
  1.5783E-03 -2.0948E-02 -8.3310E-05
 -4.8142E-03 -1.9202E-02 -5.2418E-04
 -8.1290E-03 -1.4814E-02 -2.9627E-04
 -9.3324E-03 -1.1308E-02 -1.0360E-04
 -8.6327E-03 -8.4104E-03  7.4101E-05
 -7.6171E-03 -6.6148E-03  1.2623E-04
 -6.1989E-03 -5.1055E-03  2.5945E-04
 -4.7025E-03 -4.2038E-03  2.4211E-04
 -3.1372E-03 -3.5033E-03  3.2438E-04
 -1.5693E-03 -3.1930E-03  2.7458E-04
 -7.1369E-04 -3.0309E-03  3.3367E-04
  6.1063E-04 -2.9894E-03  2.3753E-04
  1.2560E-03 -3.0635E-03  2.8735E-04
  2.5076E-03 -3.4524E-03  2.3317E-04
  3.6795E-03 -4.0039E-03  2.7805E-04
  4.7814E-03 -4.9534E-03  2.1257E-04
  5.6060E-03 -6.0972E-03  2.4092E-04
  6.2260E-03 -7.7339E-03  1.3376E-04
  6.1370E-03 -9.5136E-03  1.3895E-04
  5.5993E-03 -1.1668E-02  1.9972E-05
  3.6905E-03 -1.3739E-02  2.7783E-05
  9.2808E-04 -1.4980E-02 -1.2357E-04
 -2.5560E-03 -1.4845E-02 -9.2607E-05
 -5.4201E-03 -1.2649E-02 -1.1838E-04
 -6.3729E-03 -1.0175E-02  2.7789E-05
 -6.6351E-03 -8.1742E-03  1.0249E-04
 -5.9672E-03 -6.3888E-03  2.4091E-04
 -5.0685E-03 -5.1867E-03  2.2589E-04
 -3.8833E-03 -4.1846E-03  3.0585E-04
 -2.6419E-03 -3.6146E-03  2.6561E-04
 -1.3255E-03 -3.2072E-03  3.2442E-04
 -6.4481E-04 -3.1313E-03  2.7055E-04
  4.4497E-04 -2.8042E-03  2.8738E-04
  1.0443E-03 -2.9389E-03  2.3146E-04
  2.0486E-03 -3.2073E-03  2.8736E-04
  3.0052E-03 -3.7705E-03  2.2854E-04
  3.7769E-03 -4.4813E-03  2.7805E-04
  4.4186E-03 -5.5249E-03  2.0823E-04
  4.6286E-03 -6.6997E-03  2.4093E-04
  4.5682E-03 -8.1255E-03  1.5317E-04
  3.7475E-03 -9.5471E-03  1.7603E-04
  2.5125E-03 -1.0774E-02  7.7295E-05
  4.7243E-04 -1.1607E-02  1.1116E-04
 -1.7436E-03 -1.1271E-02  2.8949E-07
 -3.4602E-03 -1.0232E-02  8.3378E-05
 -4.6612E-03 -8.7193E-03  9.7573E-05
 -4.8462E-03 -7.1350E-03  2.2239E-04
 -4.6800E-03 -5.8558E-03  2.1720E-04
 -3.9946E-03 -4.7175E-03  2.9658E-04
 -3.1729E-03 -3.9648E-03  2.6011E-04
 -2.1598E-03 -3.3649E-03  3.1517E-04
 -1.1008E-03 -3.0805E-03  2.6593E-04
 -4.8205E-04 -2.9386E-03  3.1518E-04
  4.1429E-04 -2.5002E-03  2.2771E-04
  8.5290E-04 -2.5541E-03  2.7812E-04
  1.6890E-03 -2.8321E-03  2.2423E-04
  2.4056E-03 -3.2213E-03  2.7810E-04
  3.0331E-03 -3.8511E-03  2.2565E-04
  3.3877E-03 -4.5880E-03  2.6879E-04
  3.5768E-03 -5.5213E-03  2.0447E-04
  3.2898E-03 -6.4962E-03  2.5021E-04
  2.7434E-03 -7.4594E-03  1.7606E-04
  1.6308E-03 -8.2837E-03  2.2238E-04
  2.9303E-04 -8.6454E-03  1.3261E-04
 -1.1814E-03 -8.5986E-03  1.8532E-04
 -2.5213E-03 -7.9067E-03  1.4102E-04
 -3.2758E-03 -6.9455E-03  2.4094E-04
 -3.7073E-03 -5.8980E-03  2.1402E-04
 -3.5498E-03 -4.8752E-03  2.9659E-04
 -3.1941E-03 -4.0776E-03  2.5635E-04
 -2.5307E-03 -3.3974E-03  3.1517E-04
 -1.7732E-03 -2.9772E-03  2.6044E-04
 -8.9925E-04 -2.6792E-03  3.1520E-04
 -4.3746E-04 -2.6207E-03  2.5552E-04
  2.7814E-04 -1.9887E-03  2.7814E-04
  7.1591E-04 -2.0707E-03  2.1816E-04
  1.3814E-03 -2.2343E-03  2.6886E-04
  1.9871E-03 -2.5740E-03  2.2394E-04
  2.4102E-03 -2.9896E-03  2.7810E-04
  2.7241E-03 -3.5554E-03  2.2073E-04
  2.7204E-03 -4.1756E-03  2.6880E-04
  2.5416E-03 -4.8523E-03  2.1057E-04
  1.9601E-03 -5.4958E-03  2.6877E-04
  1.1920E-03 -5.9659E-03  2.0041E-04
  1.5754E-04 -6.2554E-03  2.5948E-04
 -9.0936E-04 -6.1379E-03  1.9114E-04
 -1.8072E-03 -5.7830E-03  2.6876E-04
 -2.5207E-03 -5.1563E-03  2.1867E-04
 -2.7760E-03 -4.4536E-03  2.8733E-04
 -2.8301E-03 -3.7813E-03  2.5085E-04
 -2.5168E-03 -3.1657E-03  3.1518E-04
 -2.0778E-03 -2.7128E-03  2.5842E-04
 -1.4416E-03 -2.3502E-03  3.0594E-04
 -7.4865E-04 -2.1706E-03  2.5206E-04
 -3.0595E-04 -2.0814E-03  2.9668E-04
  2.9090E-04 -1.4012E-03  2.1441E-04
  6.0729E-04 -1.4278E-03  2.6888E-04
  1.1856E-03 -1.5686E-03  2.1846E-04
  1.6503E-03 -1.7615E-03  2.6886E-04
  2.0396E-03 -2.0610E-03  2.2250E-04
  2.2017E-03 -2.4010E-03  2.7811E-04
  2.2383E-03 -2.8084E-03  2.2045E-04
  1.9697E-03 -3.2211E-03  2.6881E-04
  1.5569E-03 -3.5937E-03  2.2216E-04
  8.7124E-04 -3.9021E-03  2.8732E-04
  9.7608E-05 -4.0153E-03  2.2215E-04
 -7.0904E-04 -3.9994E-03  2.7806E-04
 -1.4555E-03 -3.7507E-03  2.3085E-04
 -1.9465E-03 -3.4018E-03  2.9661E-04
 -2.2751E-03 -2.9761E-03  2.4680E-04
 -2.2619E-03 -2.5493E-03  3.1518E-04
 -2.1134E-03 -2.1777E-03  2.5465E-04
 -1.7151E-03 -1.8588E-03  3.0594E-04
 -1.2319E-03 -1.6474E-03  2.5033E-04
 -6.3047E-04 -1.4974E-03  3.0596E-04
 -3.0597E-04 -1.4684E-03  2.4570E-04
  2.0398E-04 -7.0930E-04  2.5961E-04
  5.4849E-04 -7.4030E-04  2.1354E-04
  1.0477E-03 -7.9736E-04  2.6888E-04
  1.4904E-03 -9.0628E-04  2.2020E-04
  1.7708E-03 -1.0384E-03  2.7813E-04
  1.9593E-03 -1.2159E-03  2.2510E-04
  1.9004E-03 -1.4044E-03  2.7810E-04
  1.7190E-03 -1.6008E-03  2.2537E-04
  1.2792E-03 -1.7844E-03  2.7808E-04
  7.3574E-04 -1.9112E-03  2.3231E-04
  6.0249E-05 -1.9882E-03  2.8734E-04
 -6.2567E-04 -1.9529E-03  2.3463E-04
 -1.2097E-03 -1.8585E-03  2.9662E-04
 -1.6984E-03 -1.6839E-03  2.4536E-04
 -1.9235E-03 -1.4832E-03  3.0591E-04
 -2.0074E-03 -1.2848E-03  2.5175E-04
 -1.8264E-03 -1.0986E-03  3.0594E-04
 -1.5431E-03 -9.5553E-04  2.4569E-04
 -1.0801E-03 -8.3908E-04  2.9669E-04
 -5.6964E-04 -7.7768E-04  2.4281E-04
 -2.1325E-04 -7.4639E-04  2.9670E-04
  2.4919E-04 -3.4654E-04  2.1442E-04
  5.1923E-04 -2.9670E-04  2.6889E-04
  1.0187E-03 -3.8710E-04  2.1557E-04
  1.4093E-03 -3.8940E-04  2.6887E-04
  1.7239E-03 -5.0586E-04  2.2425E-04
  1.8356E-03 -5.2843E-04  2.8739E-04
  1.8396E-03 -6.8195E-04  2.2886E-04
  1.5898E-03 -7.2305E-04  2.8737E-04
  1.2282E-03 -8.6439E-04  2.2942E-04
  6.6740E-04 -8.8059E-04  2.9662E-04
  5.1561E-05 -9.6227E-04  2.3579E-04
 -5.7934E-04 -9.0840E-04  2.9662E-04
 -1.1691E-03 -9.0147E-04  2.4333E-04
 -1.5712E-03 -7.7867E-04  2.9664E-04
 -1.8587E-03 -7.2656E-04  2.5146E-04
 -1.8773E-03 -5.6551E-04  3.0593E-04
 -1.7754E-03 -5.3888E-04  2.4916E-04
 -1.4556E-03 -4.0794E-04  2.9669E-04
 -1.0523E-03 -4.1259E-04  2.4107E-04
 -5.3777E-04 -3.2452E-04  2.8743E-04
 -2.5846E-04 -3.6509E-04  2.3760E-04
  3.7618E-04  1.5988E-04  4.6082E-04
  8.9196E-04  2.2659E-04  4.6288E-04
  1.7116E-03  2.0689E-04  4.6551E-04
  2.4579E-03  3.3736E-04  4.5902E-04
  2.9667E-03  3.7612E-04  4.5605E-04
  3.3267E-03  5.6003E-04  4.3545E-04
  3.3000E-03  6.4871E-04  4.2777E-04
  3.0720E-03  8.6518E-04  3.9807E-04
  2.3924E-03  9.5883E-04  3.9481E-04
  1.5295E-03  1.1441E-03  3.6513E-04
  3.9008E-04  1.1656E-03  3.8068E-04
 -7.9368E-04  1.2102E-03  3.7187E-04
 -1.8377E-03  1.0716E-03  4.1830E-04
 -2.7173E-03  9.8940E-04  4.3712E-04
 -3.1306E-03  7.6149E-04  4.8416E-04
 -3.3101E-03  6.5226E-04  4.9889E-04
 -3.0182E-03  4.4192E-04  5.2184E-04
 -2.5445E-03  3.8112E-04  5.2687E-04
 -1.7820E-03  2.2569E-04  5.3601E-04
 -9.3981E-04  2.3921E-04  5.3603E-04
 -4.0438E-04  1.6927E-04  5.3603E-04
  4.4525E-04  4.4525E-04  4.6288E-04
  9.0752E-04  4.6082E-04  4.6082E-04
  1.7874E-03  5.5514E-04  4.5992E-04
  2.5108E-03  6.8176E-04  4.5608E-04
  3.1215E-03  8.9152E-04  4.4106E-04
  3.4083E-03  1.1283E-03  4.2780E-04
  3.5167E-03  1.4396E-03  3.9839E-04
  3.1680E-03  1.7485E-03  3.8073E-04
  2.5944E-03  2.0686E-03  3.3840E-04
  1.5932E-03  2.3264E-03  3.2898E-04
  4.3883E-04  2.4744E-03  2.9490E-04
 -8.1775E-04  2.4767E-03  3.2898E-04
 -2.0024E-03  2.3009E-03  3.4191E-04
 -2.8107E-03  2.0117E-03  4.1361E-04
 -3.3767E-03  1.6698E-03  4.3715E-04
 -3.4081E-03  1.3068E-03  4.8889E-04
 -3.2071E-03  1.0181E-03  5.0245E-04
 -2.6094E-03  7.6165E-04  5.2187E-04
 -1.8793E-03  6.0154E-04  5.2954E-04
 -9.5920E-04  4.8901E-04  5.3603E-04
 -4.7549E-04  4.6844E-04  5.3603E-04
  4.2320E-04  8.1348E-04  4.6552E-04
  1.0010E-03  8.8841E-04  4.6287E-04
  1.9325E-03  1.0297E-03  4.5609E-04
  2.7925E-03  1.3241E-03  4.4225E-04
  3.4132E-03  1.6878E-03  4.2312E-04
  3.8827E-03  2.2218E-03  3.8225E-04
  3.9202E-03  2.7968E-03  3.4314E-04
  3.7213E-03  3.4748E-03  2.7466E-04
  2.9702E-03  4.1028E-03  2.3028E-04
  1.9644E-03  4.6539E-03  1.3364E-04
  5.4041E-04  4.9859E-03  1.0808E-04
 -9.7686E-04  4.9789E-03  7.2251E-05
 -2.3027E-03  4.6196E-03  1.7388E-04
 -3.3844E-03  4.0142E-03  2.2677E-04
 -3.8354E-03  3.2572E-03  3.4311E-04
 -3.9794E-03  2.5698E-03  4.0073E-04
 -3.5634E-03  1.9133E-03  4.7011E-04
 -2.9601E-03  1.4645E-03  4.9894E-04
 -2.0547E-03  1.1002E-03  5.2189E-04
 -1.0694E-03  9.3509E-04  5.3161E-04
 -4.7020E-04  8.4635E-04  5.3602E-04
  5.5308E-04  1.1209E-03  4.6551E-04
  1.1238E-03  1.1708E-03  4.6550E-04
  2.2169E-03  1.4291E-03  4.4873E-04
  3.1688E-03  1.7913E-03  4.2784E-04
  4.0192E-03  2.4023E-03  3.8226E-04
  4.5173E-03  3.1118E-03  3.2434E-04
  4.7935E-03  4.0627E-03  2.1914E-04
  4.4740E-03  5.0332E-03  1.2219E-04
  3.8307E-03  6.0880E-03 -4.5816E-05
  2.4762E-03  6.9494E-03 -1.7385E-04
  8.0345E-04  7.5253E-03 -3.8293E-04
 -1.1840E-03  7.5271E-03 -3.7589E-04
 -3.0384E-03  6.9384E-03 -3.1482E-04
 -4.1729E-03  5.8834E-03 -6.5789E-05
 -4.8819E-03  4.7538E-03  7.4609E-05
 -4.7520E-03  3.5581E-03  2.7732E-04
 -4.3151E-03  2.6868E-03  3.8194E-04
 -3.4225E-03  1.9322E-03  4.7012E-04
 -2.3972E-03  1.5086E-03  5.0542E-04
 -1.2131E-03  1.1990E-03  5.2660E-04
 -6.0213E-04  1.1452E-03  5.3160E-04
  5.8304E-04  1.2225E-03  4.6549E-04
  1.3030E-03  1.3488E-03  4.5902E-04
  2.5530E-03  1.5939E-03  4.4195E-04
  3.7543E-03  2.1379E-03  3.9990E-04
  4.7337E-03  2.8158E-03  3.4316E-04
  5.5519E-03  3.8489E-03  2.1533E-04
  5.8416E-03  4.9957E-03  6.5794E-05
  5.8064E-03  6.4593E-03 -1.7181E-04
  4.8863E-03  7.8462E-03 -4.0406E-04
  3.5002E-03  9.1808E-03 -8.1067E-04
  1.1180E-03  9.9824E-03 -1.1556E-03
 -1.6245E-03  1.0056E-02 -1.4307E-03
 -3.9463E-03  8.9589E-03 -1.0852E-03
 -5.6931E-03  7.5983E-03 -8.6100E-04
 -6.1606E-03  5.6907E-03 -3.1954E-04
 -6.0587E-03  4.3013E-03  1.2043E-05
 -5.1893E-03  3.0177E-03  2.8673E-04
 -4.1102E-03  2.2403E-03  4.0958E-04
 -2.7879E-03  1.6220E-03  4.9365E-04
 -1.4214E-03  1.3467E-03  5.1836E-04
 -6.3943E-04  1.2036E-03  5.3129E-04
  7.3524E-04  1.2048E-03  4.6372E-04
  1.4951E-03  1.2695E-03  4.6077E-04
  2.9857E-03  1.6294E-03  4.3018E-04
  4.3908E-03  2.1343E-03  3.8079E-04
  5.7099E-03  3.0327E-03  2.6528E-04
  6.6972E-03  4.1076E-03  1.0810E-04
  7.4365E-03  5.6961E-03 -1.8032E-04
  7.3244E-03  7.3902E-03 -5.1210E-04
  6.6726E-03  9.4135E-03 -1.0463E-03
  4.6122E-03  1.1103E-02 -1.6063E-03
  1.7159E-03  1.2291E-02 -2.6599E-03
 -2.2073E-03  1.1835E-02 -3.2029E-03
 -5.7287E-03  1.0469E-02 -2.7333E-03
 -7.4410E-03  7.9483E-03 -2.1374E-03
 -8.2000E-03  6.0537E-03 -9.8933E-04
 -7.4250E-03  4.2200E-03 -2.4907E-04
 -6.3161E-03  3.0616E-03  1.3719E-04
 -4.8183E-03  2.0965E-03  3.7606E-04
 -3.2565E-03  1.5696E-03  4.6807E-04
 -1.6314E-03  1.1989E-03  5.1716E-04
 -8.0103E-04  1.1343E-03  5.2599E-04
  7.8988E-04  9.1683E-04  4.6547E-04
  1.7117E-03  1.0564E-03  4.5547E-04
  3.4178E-03  1.3258E-03  4.2782E-04
  5.1189E-03  1.9394E-03  3.4022E-04
  6.7071E-03  2.7355E-03  2.0681E-04
  8.1862E-03  4.0820E-03 -6.6378E-05
  9.1242E-03  5.6568E-03 -4.2285E-04
  9.6242E-03  7.9707E-03 -1.0598E-03
  8.5988E-03  1.0336E-02 -1.7611E-03
  6.6093E-03  1.2732E-02 -3.1195E-03
  1.8498E-03  1.3878E-02 -4.8263E-03
 -3.7369E-03  1.3032E-02 -5.0186E-03
 -7.8323E-03  1.0199E-02 -4.4937E-03
 -1.0230E-02  7.4378E-03 -2.4752E-03
 -9.8890E-03  5.2052E-03 -1.2355E-03
 -8.9682E-03  3.6954E-03 -4.0939E-04
 -7.3129E-03  2.4674E-03  9.8696E-05
 -5.5422E-03  1.7272E-03  3.3491E-04
 -3.6856E-03  1.1612E-03  4.7011E-04
 -1.8374E-03  9.1148E-04  5.1392E-04
 -8.4626E-04  7.8514E-04  5.3127E-04
  9.3004E-04  5.0865E-04  4.6869E-04
  1.9041E-03  5.5948E-04  4.6075E-04
  3.8282E-03  8.5943E-04  4.1253E-04
  5.8006E-03  1.2974E-03  3.2904E-04
  7.7760E-03  2.1572E-03  1.0986E-04
  9.6187E-03  3.2469E-03 -2.0205E-04
  1.1284E-02  5.1517E-03 -8.3444E-04
  1.2004E-02  7.3452E-03 -1.6156E-03
  1.1836E-02  1.0859E-02 -3.1994E-03
  8.1533E-03  1.4002E-02 -4.6423E-03
  2.0788E-03  1.5342E-02 -6.7128E-03
 -5.8856E-03  1.3466E-02 -7.3124E-03
 -1.1768E-02  9.5411E-03 -4.3692E-03
 -1.2435E-02  6.3066E-03 -2.0146E-03
 -1.1893E-02  4.1137E-03 -1.0096E-03
 -1.0163E-02  2.5654E-03 -2.5842E-04
 -8.2219E-03  1.6510E-03  1.2131E-04
 -6.1246E-03  9.7768E-04  3.7133E-04
 -4.0405E-03  6.1201E-04  4.6980E-04
 -2.0074E-03  3.6200E-04  5.2654E-04
 -9.7907E-04  3.1911E-04  5.3537E-04
  9.4972E-04 -1.2224E-04  4.7956E-04
  2.0413E-03 -4.9365E-05  4.5927E-04
  4.1558E-03  9.4022E-05  4.1840E-04
  6.3357E-03  4.5008E-04  2.8615E-04
  8.6568E-03  9.3994E-04  7.0495E-05
  1.1022E-02  1.9520E-03 -4.5371E-04
  1.3223E-02  3.2223E-03 -1.2072E-03
  1.5195E-02  5.7534E-03 -2.7942E-03
  1.5255E-02  8.5664E-03 -5.0553E-03
  1.2410E-02  1.4303E-02 -7.9255E-03
  1.3136E-03  1.8179E-02 -9.8707E-03
 -1.0607E-02  1.4083E-02 -7.0916E-03
 -1.4991E-02  8.4577E-03 -3.9473E-03
 -1.5673E-02  5.0425E-03 -2.1158E-03
 -1.3631E-02  2.4706E-03 -6.4818E-04
 -1.1317E-02  1.2756E-03 -1.5211E-04
 -8.9008E-03  4.8874E-04  2.3497E-04
 -6.5346E-03  1.0370E-04  3.9042E-04
 -4.3013E-03 -1.5983E-04  4.9830E-04
 -2.1162E-03 -2.7179E-04  5.3154E-04
 -9.7789E-04 -3.2440E-04  5.5006E-04
  1.0255E-03 -8.1162E-04  4.7604E-04
  2.1204E-03 -8.0866E-04  4.7015E-04
  4.2854E-03 -7.7158E-04  4.0694E-04
  6.6466E-03 -7.0978E-04  3.0083E-04
  9.1388E-03 -5.4134E-04 -1.4099E-05
  1.1901E-02 -2.7251E-04 -5.5442E-04
  1.4716E-02  4.3917E-04 -1.7764E-03
  1.7349E-02  1.2865E-03 -3.6294E-03
  1.9843E-02  3.6228E-03 -7.0617E-03
  1.7764E-02  6.6891E-03 -1.2989E-02
  2.6133E-03  1.0725E-02 -9.2175E-03
 -1.5605E-02  1.1144E-02 -6.3882E-03
 -2.1045E-02  4.6402E-03 -3.8744E-03
 -1.8423E-02  1.3380E-03 -2.3380E-03
 -1.5228E-02  2.2398E-04 -9.5315E-04
 -1.2145E-02 -5.8259E-04 -3.2888E-05
 -9.2689E-03 -8.2417E-04  2.3938E-04
 -6.7732E-03 -9.5888E-04  4.3243E-04
 -4.3887E-03 -9.9485E-04  4.9977E-04
 -2.1720E-03 -1.0108E-03  5.4536E-04
 -1.0520E-03 -1.0138E-03  5.4831E-04
  9.5916E-04 -1.5187E-03  4.7958E-04
  2.0734E-03 -1.5751E-03  4.6194E-04
  4.2547E-03 -1.6784E-03  4.2312E-04
  6.5219E-03 -1.9226E-03  2.9585E-04
  9.0942E-03 -2.2230E-03  7.0497E-05
  1.1849E-02 -2.7605E-03 -5.9027E-04
  1.4782E-02 -3.3303E-03 -1.7708E-03
  1.7670E-02 -4.3288E-03 -3.8417E-03
  2.0660E-02 -5.4911E-03 -7.1243E-03
  1.9500E-02 -7.3029E-03 -8.2774E-03
  5.7674E-03 -5.3172E-03 -6.8177E-03
 -1.7445E-02 -5.0016E-03 -3.4022E-03
 -2.4801E-02 -4.9742E-03 -3.0080E-03
 -1.8700E-02 -4.2983E-03 -1.8240E-03
 -1.5552E-02 -3.3113E-03 -1.0615E-03
 -1.2122E-02 -2.7460E-03 -1.9851E-04
 -9.2771E-03 -2.3310E-03  2.7258E-04
 -6.6569E-03 -2.0635E-03  4.2040E-04
 -4.3533E-03 -1.8523E-03  5.1242E-04
 -2.1280E-03 -1.7516E-03  5.3920E-04
 -9.8734E-04 -1.7020E-03  5.5009E-04
  9.4686E-04 -2.1835E-03  4.7431E-04
  1.9607E-03 -2.2334E-03  4.7018E-04
  3.9555E-03 -2.5247E-03  4.2755E-04
  6.1019E-03 -2.9428E-03  3.5727E-04
  8.3475E-03 -3.7607E-03  1.3983E-04
  1.0794E-02 -4.7837E-03 -2.1616E-04
  1.3286E-02 -6.7295E-03 -1.2261E-03
  1.5187E-02 -8.8710E-03 -2.7660E-03
  1.6630E-02 -1.3290E-02 -4.0181E-03
  1.7939E-02 -1.7531E-02 -4.8098E-03
  5.3271E-03 -2.0957E-02 -2.8128E-03
 -1.5261E-02 -1.9262E-02  3.2370E-04
 -2.0613E-02 -1.3212E-02 -9.5812E-04
 -1.6759E-02 -8.9033E-03 -9.1568E-04
 -1.3751E-02 -6.6273E-03 -5.8367E-04
 -1.1165E-02 -4.7412E-03 -7.9881E-05
 -8.6128E-03 -3.7806E-03  2.4675E-04
 -6.2944E-03 -3.0461E-03  4.4188E-04
 -4.0811E-03 -2.6598E-03  5.0452E-04
 -2.0217E-03 -2.3885E-03  5.4070E-04
 -9.8151E-04 -2.3415E-03  5.4365E-04
  7.9938E-04 -2.6380E-03  4.7022E-04
  1.7524E-03 -2.7854E-03  4.6287E-04
  3.5452E-03 -3.0797E-03  4.4667E-04
  5.3713E-03 -3.7490E-03  3.8639E-04
  7.2531E-03 -4.6301E-03  2.9614E-04
  9.1298E-03 -6.2128E-03  1.7918E-05
  1.0694E-02 -8.1192E-03 -3.5709E-04
  1.1870E-02 -1.1408E-02 -1.0537E-03
  1.1998E-02 -1.4652E-02 -1.2632E-03
  1.1611E-02 -2.0223E-02 -1.7942E-03
  4.0365E-03 -2.6392E-02 -1.3095E-03
 -9.2071E-03 -2.2724E-02 -7.0964E-04
 -1.4438E-02 -1.5476E-02 -7.4657E-04
 -1.3146E-02 -1.1359E-02 -4.8203E-04
 -1.1389E-02 -8.1141E-03 -1.5974E-04
 -9.5521E-03 -6.2489E-03  8.7529E-05
 -7.5819E-03 -4.7146E-03  3.2433E-04
 -5.6065E-03 -3.8647E-03  4.4368E-04
 -3.6956E-03 -3.2160E-03  5.1249E-04
 -1.8256E-03 -2.9344E-03  5.3163E-04
 -8.3698E-04 -2.7931E-03  5.4075E-04
  7.4065E-04 -2.9626E-03  4.6085E-04
  1.5189E-03 -3.0378E-03  4.6084E-04
  3.0438E-03 -3.4517E-03  4.4612E-04
  4.5513E-03 -4.0435E-03  4.2786E-04
  6.0299E-03 -5.1270E-03  3.5641E-04
  7.3045E-03 -6.4631E-03  2.7263E-04
  8.3749E-03 -8.5588E-03  4.9933E-05
  8.6548E-03 -1.0887E-02 -7.9876E-05
  8.4070E-03 -1.4057E-02 -3.6142E-04
  6.1998E-03 -1.7341E-02 -3.3817E-04
  2.0690E-03 -2.0529E-02 -6.3047E-04
 -4.3489E-03 -2.0472E-02 -8.8292E-04
 -9.0163E-03 -1.5446E-02 -6.3442E-04
 -9.3966E-03 -1.1328E-02 -2.7250E-04
 -9.0010E-03 -8.7983E-03  2.3497E-05
 -7.7648E-03 -6.6509E-03  2.6321E-04
 -6.3711E-03 -5.3060E-03  3.8578E-04
 -4.7957E-03 -4.2080E-03  4.7957E-04
 -3.1974E-03 -3.6095E-03  5.1018E-04
 -1.5988E-03 -3.1929E-03  5.2667E-04
 -7.7914E-04 -3.1139E-03  5.2874E-04
  5.6435E-04 -2.9863E-03  4.5148E-04
  1.2818E-03 -3.1435E-03  4.4559E-04
  2.5394E-03 -3.4517E-03  4.4204E-04
  3.7621E-03 -4.1192E-03  4.2820E-04
  4.8334E-03 -4.9745E-03  4.0905E-04
  5.7904E-03 -6.3019E-03  3.4701E-04
  6.2704E-03 -7.8357E-03  2.8673E-04
  6.4181E-03 -9.8410E-03  1.6361E-04
  5.5449E-03 -1.1931E-02  9.8681E-05
  4.0355E-03 -1.4015E-02 -4.9628E-05
  9.0676E-04 -1.5659E-02 -1.7383E-04
 -2.7062E-03 -1.5017E-02 -3.7322E-04
 -5.2956E-03 -1.2997E-02 -3.8530E-04
 -6.8211E-03 -1.0551E-02 -7.2549E-05
 -6.7120E-03 -8.2584E-03  2.0681E-04
 -6.1857E-03 -6.6193E-03  3.4670E-04
 -5.1389E-03 -5.2094E-03  4.5136E-04
 -3.9786E-03 -4.3145E-03  4.8756E-04
 -2.6804E-03 -3.6162E-03  5.1258E-04
 -1.3494E-03 -3.2928E-03  5.1436E-04
 -5.9256E-04 -3.1274E-03  5.1731E-04
  5.1294E-04 -2.8734E-03  4.3358E-04
  1.0535E-03 -2.9395E-03  4.3269E-04
  2.0946E-03 -3.2886E-03  4.3091E-04
  3.0285E-03 -3.7810E-03  4.2794E-04
  3.8797E-03 -4.5994E-03  4.1586E-04
  4.4432E-03 -5.5717E-03  3.9966E-04
  4.8050E-03 -6.8704E-03  3.5054E-04
  4.5598E-03 -8.2687E-03  3.1025E-04
  3.9606E-03 -9.7473E-03  2.3384E-04
  2.4722E-03 -1.1092E-02  1.7390E-04
  5.6456E-04 -1.1751E-02  7.7252E-05
 -1.6872E-03 -1.1707E-02  9.3996E-06
 -3.6996E-03 -1.0521E-02  3.0257E-05
 -4.6583E-03 -8.9123E-03  1.8332E-04
 -5.0896E-03 -7.3588E-03  3.1821E-04
 -4.7158E-03 -5.9101E-03  4.3256E-04
 -4.1165E-03 -4.8556E-03  4.6875E-04
 -3.2025E-03 -3.9784E-03  4.9848E-04
 -2.2074E-03 -3.4511E-03  4.9939E-04
 -1.1099E-03 -3.0805E-03  5.0323E-04
 -5.3969E-04 -3.0094E-03  5.0030E-04
  3.6687E-04 -2.5023E-03  4.1861E-04
  8.7455E-04 -2.6131E-03  4.1861E-04
  1.6979E-03 -2.8361E-03  4.1860E-04
  2.4644E-03 -3.2986E-03  4.2151E-04
  3.0427E-03 -3.8751E-03  4.2325E-04
  3.5018E-03 -4.6892E-03  4.0735E-04
  3.5735E-03 -5.5954E-03  3.9027E-04