# vtk DataFile Version 3.0
model R-SWMS
ASCII
DATASET RECTILINEAR_GRID
DIMENSIONS      21    21    21
X_COORDINATES      21 float
 -5.0000E+00 -4.5000E+00 -4.0000E+00 -3.5000E+00 -3.0000E+00 -2.5000E+00 -2.0000E+00 -1.5000E+00 -1.0000E+00 -5.0000E-01  0.0000E+00  5.0000E-01  1.0000E+00  1.5000E+00  2.0000E+00  2.5000E+00  3.0000E+00  3.5000E+00  4.0000E+00  4.5000E+00  5.0000E+00
Y_COORDINATES      21 float
-5.0000E+00-4.5000E+00-4.0000E+00-3.5000E+00-3.0000E+00-2.5000E+00-2.0000E+00-1.5000E+00-1.0000E+00-5.0000E-01 0.0000E+00 5.0000E-01 1.0000E+00 1.5000E+00 2.0000E+00 2.5000E+00 3.0000E+00 3.5000E+00 4.0000E+00 4.5000E+00 5.0000E+00
Z_COORDINATES      21 float
 0.0000E+00-5.0000E-01-1.0000E+00-1.5000E+00-2.0000E+00-2.5000E+00-3.0000E+00-3.5000E+00-4.0000E+00-4.5000E+00-5.0000E+00-5.5000E+00-6.0000E+00-6.5000E+00-7.0000E+00-7.5000E+00-8.0000E+00-8.5000E+00-9.0000E+00-9.5000E+00-1.0000E+01
     POINT_DATA    9261
SCALARS velocity float 3
LOOKUP_TABLE default
  4.3040E-04  2.0857E-04  2.4956E-04
  8.6802E-04  1.6396E-04  2.9898E-04
  1.7028E-03  2.6221E-04  2.4653E-04
  2.3869E-03  2.7003E-04  2.9896E-04
  2.9605E-03  4.2913E-04  2.4108E-04
  3.2158E-03  4.9177E-04  2.8928E-04
  3.3005E-03  6.8999E-04  2.1875E-04
  2.9550E-03  7.7129E-04  2.6995E-04
  2.4005E-03  9.8092E-04  1.9522E-04
  1.4605E-03  1.0508E-03  2.4100E-04
  3.9463E-04  1.1682E-03  1.7894E-04
 -7.5673E-04  1.1086E-03  2.5064E-04
 -1.8419E-03  1.0851E-03  1.9461E-04
 -2.5933E-03  8.8694E-04  2.8922E-04
 -3.1359E-03  7.9300E-04  2.3862E-04
 -3.1819E-03  5.6888E-04  3.1819E-04
 -3.0146E-03  4.8576E-04  2.7120E-04
 -2.4639E-03  2.9895E-04  3.3752E-04
 -1.7817E-03  2.8691E-04  2.8208E-04
 -9.1138E-04  1.8324E-04  3.3755E-04
 -4.5328E-04  2.2182E-04  2.8933E-04
  3.8579E-04  4.2919E-04  2.9899E-04
  9.0599E-04  4.6415E-04  2.4714E-04
  1.7360E-03  5.3526E-04  2.9897E-04
  2.5005E-03  6.8200E-04  2.4019E-04
  3.0280E-03  8.5824E-04  2.8930E-04
  3.4032E-03  1.1155E-03  2.2358E-04
  3.3842E-03  1.3884E-03  2.6997E-04
  3.1628E-03  1.7010E-03  1.9282E-04
  2.4824E-03  1.9859E-03  2.4101E-04
  1.5966E-03  2.2334E-03  1.5363E-04
  4.1450E-04  2.3713E-03  2.2171E-04
 -8.1636E-04  2.3635E-03  1.4640E-04
 -1.9039E-03  2.2075E-03  2.3136E-04
 -2.8105E-03  1.9368E-03  1.9130E-04
 -3.2298E-03  1.5956E-03  2.7959E-04
 -3.4030E-03  1.2812E-03  2.4225E-04
 -3.0953E-03  9.6909E-04  3.1821E-04
 -2.6031E-03  7.5399E-04  2.7303E-04
 -1.8179E-03  5.7381E-04  3.2789E-04
 -9.5778E-04  4.9306E-04  2.8450E-04
 -4.1470E-04  4.4846E-04  3.3755E-04
  4.7620E-04  8.2340E-04  2.4714E-04
  9.7409E-04  8.5353E-04  2.9898E-04
  1.9198E-03  1.0343E-03  2.4291E-04
  2.7098E-03  1.2778E-03  2.8931E-04
  3.3940E-03  1.6752E-03  2.2209E-04
  3.7459E-03  2.1309E-03  2.5069E-04
  3.8996E-03  2.7324E-03  1.7686E-04
  3.5525E-03  3.3307E-03  2.1209E-04
  2.9582E-03  3.9589E-03  1.0182E-04
  1.8459E-03  4.4484E-03  1.2531E-04
  5.3556E-04  4.7495E-03  2.6507E-05
 -9.2051E-04  4.7278E-03  9.6388E-05
 -2.2947E-03  4.4057E-03  5.1208E-05
 -3.2052E-03  3.8126E-03  1.7352E-04
 -3.8168E-03  3.1558E-03  1.5395E-04
 -3.8084E-03  2.4393E-03  2.6032E-04
 -3.5454E-03  1.8893E-03  2.3503E-04
 -2.8592E-03  1.3982E-03  3.1822E-04
 -2.0399E-03  1.1063E-03  2.7334E-04
 -1.0367E-03  8.9207E-04  3.3754E-04
 -5.1295E-04  8.5893E-04  2.8510E-04
  4.8222E-04  1.0753E-03  2.9897E-04
  1.1133E-03  1.1796E-03  2.4412E-04
  2.1602E-03  1.3742E-03  2.8931E-04
  3.1368E-03  1.7903E-03  2.2571E-04
  3.8811E-03  2.3045E-03  2.6035E-04
  4.4712E-03  3.0642E-03  1.6451E-04
  4.5840E-03  3.8851E-03  1.7353E-04
  4.4272E-03  4.8881E-03  5.2113E-05
  3.6000E-03  5.8072E-03  4.8193E-05
  2.4369E-03  6.6378E-03 -1.2620E-04
  6.9390E-04  7.0835E-03 -1.2529E-04
 -1.1872E-03  7.0830E-03 -2.4576E-04
 -2.8191E-03  6.4671E-03 -1.0602E-04
 -4.1263E-03  5.6010E-03 -9.1267E-05
 -4.6030E-03  4.4391E-03  9.6398E-05
 -4.6894E-03  3.4758E-03  1.2081E-04
 -4.1363E-03  2.5454E-03  2.5069E-04
 -3.3771E-03  1.9349E-03  2.3956E-04
 -2.3240E-03  1.4417E-03  3.1823E-04
 -1.1988E-03  1.2157E-03  2.7605E-04
 -5.2077E-04  1.0946E-03  3.3754E-04
  6.2506E-04  1.2399E-03  2.4532E-04
  1.2730E-03  1.2971E-03  2.9896E-04
  2.5197E-03  1.6090E-03  2.3416E-04
  3.6402E-03  2.0443E-03  2.7000E-04
  4.6624E-03  2.7973E-03  1.7596E-04
  5.3265E-03  3.6731E-03  1.7353E-04
  5.7533E-03  4.8893E-03  2.8617E-05
  5.4745E-03  6.1347E-03 -1.9276E-05
  4.7845E-03  7.5358E-03 -2.4183E-04
  3.1221E-03  8.6243E-03 -3.4690E-04
  1.0096E-03  9.3444E-03 -6.4227E-04
 -1.5369E-03  9.1587E-03 -6.4559E-04
 -3.8849E-03  8.3755E-03 -6.3389E-04
 -5.2331E-03  6.8522E-03 -3.6622E-04
 -5.9989E-03  5.4742E-03 -1.9458E-04
 -5.7020E-03  4.0006E-03  6.7480E-05
 -5.0710E-03  2.9963E-03  1.3468E-04
 -3.9630E-03  2.1261E-03  2.6998E-04
 -2.7392E-03  1.6381E-03  2.5192E-04
 -1.3838E-03  1.2874E-03  3.2788E-04
 -6.7988E-04  1.2259E-03  2.7484E-04
  6.6542E-04  1.1524E-03  2.9896E-04
  1.4743E-03  1.2916E-03  2.4290E-04
  2.9074E-03  1.5574E-03  2.8929E-04
  4.3035E-03  2.1454E-03  1.9586E-04
  5.5099E-03  2.8875E-03  2.0247E-04
  6.5605E-03  4.0662E-03  4.8802E-05
  7.0456E-03  5.3830E-03 -2.8915E-05
  7.1513E-03  7.1567E-03 -2.9121E-04
  6.0894E-03  8.8258E-03 -4.7212E-04
  4.3582E-03  1.0442E-02 -9.2606E-04
  1.2282E-03  1.1175E-02 -1.2331E-03
 -2.2789E-03  1.0925E-02 -1.4528E-03
 -5.1254E-03  9.3645E-03 -1.2525E-03
 -7.1467E-03  7.6056E-03 -8.6420E-04
 -7.4545E-03  5.5993E-03 -4.1441E-04
 -7.1446E-03  4.1656E-03 -1.3344E-04
 -6.0109E-03  2.8873E-03  1.3497E-04
 -4.6946E-03  2.1106E-03  1.8591E-04
 -3.1628E-03  1.4946E-03  2.9892E-04
 -1.5956E-03  1.2238E-03  2.6368E-04
 -7.2325E-04  1.0849E-03  3.2787E-04
  8.2211E-04  9.4266E-04  2.4350E-04
  1.6779E-03  1.0029E-03  2.9894E-04
  3.3445E-03  1.3479E-03  2.2148E-04
  4.9704E-03  1.8368E-03  2.3140E-04
  6.5453E-03  2.7391E-03  9.7611E-05
  7.8220E-03  3.8315E-03  2.8917E-05
  8.8601E-03  5.5473E-03 -2.5056E-04
  8.9172E-03  7.3949E-03 -4.8175E-04
  8.2573E-03  9.8083E-03 -1.0205E-03
  5.4707E-03  1.1697E-02 -1.4832E-03
  1.5228E-03  1.2715E-02 -2.1801E-03
 -3.3467E-03  1.1860E-02 -2.3307E-03
 -7.4682E-03  9.7504E-03 -1.8033E-03
 -8.9982E-03  7.1870E-03 -1.1368E-03
 -9.4398E-03  5.2198E-03 -5.8058E-04
 -8.4141E-03  3.5565E-03 -1.3493E-04
 -7.0646E-03  2.4970E-03  4.1271E-05
 -5.3557E-03  1.6535E-03  2.4103E-04
 -3.5927E-03  1.1899E-03  2.3654E-04
 -1.7936E-03  8.6786E-04  3.1822E-04
 -8.7873E-04  8.0882E-04  2.7362E-04
  8.5826E-04  4.7735E-04  2.9894E-04
  1.8596E-03  5.8492E-04  2.3776E-04
  3.7413E-03  8.0033E-04  2.7963E-04
  5.6379E-03  1.3203E-03  1.5728E-04
  7.5047E-03  1.9955E-03  1.1568E-04
  9.2975E-03  3.2261E-03 -1.4005E-04
  1.0609E-02  4.6782E-03 -3.6616E-04
  1.1489E-02  7.0781E-03 -9.4768E-04
  1.0392E-02  9.5104E-03 -1.5795E-03
  7.7162E-03  1.2681E-02 -2.6419E-03
  1.3912E-03  1.4032E-02 -3.1964E-03
 -5.6117E-03  1.2570E-02 -2.9339E-03
 -9.7985E-03  9.3699E-03 -2.0512E-03
 -1.1820E-02  6.4197E-03 -1.1652E-03
 -1.1085E-02  4.0708E-03 -4.5285E-04
 -9.7998E-03  2.6626E-03 -1.6233E-04
 -7.9140E-03  1.6098E-03  1.2531E-04
 -5.9512E-03  1.0162E-03  1.8107E-04
 -3.9484E-03  5.8335E-04  2.9891E-04
 -1.9605E-03  3.9174E-04  2.6698E-04
 -9.0644E-04  2.9411E-04  3.3750E-04
  9.7277E-04 -9.7639E-05  2.4229E-04
  2.0009E-03 -6.7502E-05  2.8929E-04
  4.0384E-03  1.2053E-04  2.0671E-04
  6.1656E-03  3.9529E-04  2.1211E-04
  8.3437E-03  9.6819E-04  1.2050E-06
  1.0505E-02  1.7058E-03 -1.7348E-04
  1.2551E-02  3.1500E-03 -7.0697E-04
  1.3750E-02  4.7967E-03 -1.3388E-03
  1.4137E-02  8.0668E-03 -2.6458E-03
  9.9917E-03  1.1325E-02 -4.3605E-03
  2.1736E-03  1.5626E-02 -4.8022E-03
 -8.0080E-03  1.5082E-02 -3.2533E-03
 -1.4599E-02  8.8784E-03 -1.9842E-03
 -1.4297E-02  4.5700E-03 -1.0305E-03
 -1.3051E-02  2.6127E-03 -4.9918E-04
 -1.0875E-02  1.2191E-03 -2.8911E-05
 -8.6262E-03  5.5034E-04  8.5849E-05
 -6.3823E-03  8.6768E-05  2.6030E-04
 -4.1856E-03 -1.2926E-04  2.4919E-04
 -2.0828E-03 -2.7482E-04  3.2785E-04
 -1.0149E-03 -2.9893E-04  2.7724E-04
  9.5470E-04 -8.0040E-04  2.9895E-04
  2.0588E-03 -7.8592E-04  2.3144E-04
  4.2041E-03 -7.6176E-04  2.6999E-04
  6.4151E-03 -6.8453E-04  1.3197E-04
  8.8154E-03 -5.5910E-04  5.7838E-05
  1.1295E-02 -2.4605E-04 -3.4122E-04
  1.3700E-02  1.7824E-04 -8.1894E-04
  1.5956E-02  1.2515E-03 -1.9022E-03
  1.6920E-02  2.5657E-03 -3.4274E-03
  1.6280E-02  7.0063E-03 -5.5086E-03
  5.1470E-03  1.3690E-02 -7.3693E-03
 -1.3796E-02  1.0056E-02 -3.0791E-03
 -2.0311E-02  3.9227E-03 -2.1948E-03
 -1.7218E-02  1.5361E-03 -1.3176E-03
 -1.4437E-02 -1.4451E-05 -4.2389E-04
 -1.1636E-02 -5.1648E-04 -1.2377E-04
 -9.0464E-03 -8.2897E-04  1.8314E-04
 -6.5712E-03 -9.2704E-04  2.0336E-04
 -4.3101E-03 -9.7868E-04  3.1819E-04
 -2.1184E-03 -9.8840E-04  2.7241E-04
 -9.8360E-04 -9.8842E-04  3.3751E-04
  9.8788E-04 -1.5098E-03  2.4411E-04
  2.0396E-03 -1.5333E-03  2.9895E-04
  4.1217E-03 -1.6670E-03  2.0732E-04
  6.3683E-03 -1.8512E-03  2.1212E-04
  8.7154E-03 -2.1898E-03 -1.0544E-05
  1.1242E-02 -2.5781E-03 -2.2167E-04
  1.3803E-02 -3.2202E-03 -9.1742E-04
  1.6138E-02 -3.8526E-03 -1.8011E-03
  1.8350E-02 -4.8728E-03 -3.4076E-03
  2.1118E-02 -5.0907E-03 -5.6585E-03
  6.2467E-03 -4.1758E-03 -2.8960E-03
 -1.7774E-02 -2.0251E-03 -4.1367E-03
 -2.2841E-02 -3.8778E-03 -1.9743E-03
 -1.8236E-02 -3.7271E-03 -1.2038E-03
 -1.4642E-02 -3.2136E-03 -5.5879E-04
 -1.1690E-02 -2.6695E-03 -2.8912E-05
 -8.9437E-03 -2.3063E-03  1.0001E-04
 -6.5320E-03 -2.0054E-03  2.7960E-04
 -4.2288E-03 -1.8351E-03  2.5613E-04
 -2.0926E-03 -1.7068E-03  3.3751E-04
 -1.0156E-03 -1.6858E-03  2.8388E-04
  8.6797E-04 -2.1217E-03  3.1826E-04
  1.9098E-03 -2.2286E-03  2.4080E-04
  3.8862E-03 -2.4349E-03  2.7965E-04
  5.9167E-03 -2.9246E-03  1.6452E-04
  8.0884E-03 -3.5526E-03  1.2533E-04
  1.0317E-02 -4.7003E-03 -1.8825E-04
  1.2426E-02 -6.0128E-03 -5.2998E-04
  1.4314E-02 -8.4580E-03 -1.2694E-03
  1.5682E-02 -1.0857E-02 -1.9644E-03
  1.6892E-02 -1.6084E-02 -2.9979E-03
  8.2124E-03 -2.0606E-02 -3.9450E-03
 -1.3879E-02 -1.7487E-02 -2.1740E-04
 -2.2014E-02 -1.1515E-02 -1.1554E-04
 -1.6146E-02 -8.6436E-03 -5.4722E-04
 -1.3379E-02 -6.0510E-03 -2.3125E-04
 -1.0750E-02 -4.7157E-03 -5.1504E-05
 -8.3822E-03 -3.6295E-03  1.9280E-04
 -6.1117E-03 -3.0342E-03  2.1453E-04
 -4.0115E-03 -2.5795E-03  3.1822E-04
 -1.9709E-03 -2.3820E-03  2.7786E-04
 -9.1617E-04 -2.2808E-03  3.3754E-04
  8.3909E-04 -2.6366E-03  2.4594E-04
  1.7264E-03 -2.7004E-03  2.9898E-04
  3.4655E-03 -3.0731E-03  2.2814E-04
  5.2506E-03 -3.6016E-03  2.6036E-04
  7.0588E-03 -4.5990E-03  1.2293E-04
  8.7818E-03 -5.8176E-03  6.7478E-05
  1.0353E-02 -7.9230E-03 -2.4787E-04
  1.1292E-02 -1.0204E-02 -4.7212E-04
  1.1782E-02 -1.4064E-02 -8.4194E-04
  1.1368E-02 -1.7916E-02 -7.8965E-04
  4.2965E-03 -2.3728E-02 -8.9084E-04
 -8.6846E-03 -2.4552E-02 -9.9170E-04
 -1.4437E-02 -1.6152E-02 -2.7660E-04
 -1.2770E-02 -1.0660E-02 -1.7342E-04
 -1.1105E-02 -8.0626E-03 -9.8780E-05
 -9.2682E-03 -5.9137E-03  1.1567E-04
 -7.3785E-03 -4.7007E-03  1.6089E-04
 -5.4818E-03 -3.7269E-03  2.8928E-04
 -3.6091E-03 -3.2119E-03  2.6279E-04
 -1.7938E-03 -2.8499E-03  3.3755E-04
 -8.7162E-04 -2.7848E-03  2.8090E-04
  6.7517E-04 -2.8791E-03  2.9900E-04
  1.4959E-03 -3.0373E-03  2.4083E-04
  2.9850E-03 -3.3467E-03  2.8934E-04
  4.4702E-03 -4.0374E-03  2.1427E-04
  5.8723E-03 -4.9225E-03  2.4106E-04
  7.1745E-03 -6.3948E-03  1.1298E-04
  8.0393E-03 -8.0971E-03  6.7476E-05
  8.5663E-03 -1.0627E-02 -1.2077E-04
  7.9687E-03 -1.3254E-02 -1.4453E-04
  6.6471E-03 -1.6984E-02 -1.8335E-04
  1.5798E-03 -2.0942E-02 -8.6696E-05
 -4.8097E-03 -1.9192E-02 -5.2591E-04
 -8.1222E-03 -1.4804E-02 -2.9868E-04
 -9.3276E-03 -1.1300E-02 -1.0450E-04
 -8.6316E-03 -8.4051E-03  7.7111E-05
 -7.6135E-03 -6.6072E-03  1.2864E-04
 -6.1952E-03 -5.0960E-03  2.6034E-04
 -4.7015E-03 -4.1983E-03  2.4621E-04
 -3.1344E-03 -3.5009E-03  3.2791E-04
 -1.5637E-03 -3.1877E-03  2.7548E-04
 -7.1374E-04 -3.0286E-03  3.2793E-04
  6.1614E-04 -2.9818E-03  2.3753E-04
  1.2588E-03 -3.0529E-03  2.8937E-04
  2.5033E-03 -3.4443E-03  2.3300E-04
  3.6746E-03 -3.9929E-03  2.7970E-04
  4.7836E-03 -4.9457E-03  2.0523E-04
  5.6071E-03 -6.0893E-03  2.3142E-04
  6.2210E-03 -7.7250E-03  1.3136E-04
  6.1357E-03 -9.5000E-03  1.4460E-04
  5.5951E-03 -1.1657E-02  2.8313E-05
  3.6815E-03 -1.3728E-02  3.8549E-05
  9.2814E-04 -1.4970E-02 -1.2468E-04
 -2.5490E-03 -1.4836E-02 -9.6370E-05
 -5.4156E-03 -1.2640E-02 -1.1957E-04
 -6.3716E-03 -1.0169E-02  1.9279E-05
 -6.6329E-03 -8.1670E-03  1.0304E-04
 -5.9589E-03 -6.3832E-03  2.4106E-04
 -5.0661E-03 -5.1795E-03  2.2933E-04
 -3.8867E-03 -4.1809E-03  3.0862E-04
 -2.6383E-03 -3.6070E-03  2.6675E-04
 -1.3215E-03 -3.2024E-03  3.2795E-04
 -6.4567E-04 -3.1283E-03  2.7310E-04
  4.5339E-04 -2.7975E-03  2.8940E-04
  1.0460E-03 -2.9331E-03  2.3152E-04
  2.0450E-03 -3.2025E-03  2.7974E-04
  3.0040E-03 -3.7636E-03  2.2547E-04
  3.7759E-03 -4.4752E-03  2.7005E-04
  4.4178E-03 -5.5178E-03  2.0403E-04
  4.6286E-03 -6.6873E-03  2.4107E-04
  4.5654E-03 -8.1154E-03  1.6090E-04
  3.7406E-03 -9.5396E-03  1.9282E-04
  2.5067E-03 -1.0767E-02  8.2242E-05
  4.7235E-04 -1.1597E-02  1.1568E-04
 -1.7385E-03 -1.1261E-02  9.0374E-07
 -3.4561E-03 -1.0224E-02  8.6764E-05
 -4.6589E-03 -8.7102E-03  9.6716E-05
 -4.8454E-03 -7.1258E-03  2.3142E-04
 -4.6766E-03 -5.8489E-03  2.1638E-04
 -3.9929E-03 -4.7162E-03  2.9898E-04
 -3.1715E-03 -3.9582E-03  2.5681E-04
 -2.1559E-03 -3.3568E-03  3.1832E-04
 -1.1003E-03 -3.0748E-03  2.6588E-04
 -4.8233E-04 -2.9325E-03  3.1833E-04
  4.2026E-04 -2.4968E-03  2.2369E-04
  8.5377E-04 -2.5517E-03  2.7012E-04
  1.6864E-03 -2.8283E-03  2.2369E-04
  2.4019E-03 -3.2171E-03  2.7974E-04
  3.0339E-03 -3.8484E-03  2.2336E-04
  3.3950E-03 -4.5814E-03  2.7006E-04
  3.5756E-03 -5.5141E-03  2.0976E-04
  3.2836E-03 -6.4900E-03  2.5073E-04
  2.7364E-03 -7.4523E-03  1.7628E-04
  1.6247E-03 -8.2779E-03  2.2177E-04
  2.9559E-04 -8.6347E-03  1.3167E-04
 -1.1763E-03 -8.5911E-03  1.9284E-04
 -2.5182E-03 -7.9000E-03  1.3952E-04
 -3.2739E-03 -6.9383E-03  2.3144E-04
 -3.7066E-03 -5.8928E-03  2.1187E-04
 -3.5493E-03 -4.8706E-03  2.8934E-04
 -3.1918E-03 -4.0720E-03  2.5048E-04
 -2.5273E-03 -3.3907E-03  3.0868E-04
 -1.7720E-03 -2.9730E-03  2.5684E-04
 -8.9717E-04 -2.6771E-03  3.0870E-04
 -4.3593E-04 -2.6162E-03  2.5625E-04
  2.8943E-04 -1.9826E-03  2.7014E-04
  7.1634E-04 -2.0670E-03  2.1587E-04
  1.3796E-03 -2.2334E-03  2.7013E-04
  1.9849E-03 -2.5703E-03  2.2490E-04
  2.4116E-03 -2.9856E-03  2.7975E-04
  2.7277E-03 -3.5542E-03  2.2336E-04
  2.7200E-03 -4.1764E-03  2.7007E-04
  2.5387E-03 -4.8486E-03  2.1128E-04
  1.9529E-03 -5.4924E-03  2.6039E-04
  1.1907E-03 -5.9584E-03  1.9559E-04
  1.5912E-04 -6.2491E-03  2.6038E-04
 -9.0892E-04 -6.1316E-03  1.9046E-04
 -1.8034E-03 -5.7768E-03  2.7003E-04
 -2.5190E-03 -5.1514E-03  2.2002E-04
 -2.7778E-03 -4.4464E-03  2.8935E-04
 -2.8286E-03 -3.7769E-03  2.4356E-04
 -2.5129E-03 -3.1640E-03  2.9904E-04
 -2.0762E-03 -2.7111E-03  2.5173E-04
 -1.4423E-03 -2.3491E-03  2.9907E-04
 -7.4709E-04 -2.1671E-03  2.4782E-04
 -2.9908E-04 -2.0791E-03  2.9908E-04
  2.9427E-04 -1.3990E-03  2.1226E-04
  6.0300E-04 -1.4279E-03  2.6050E-04
  1.1840E-03 -1.5657E-03  2.1677E-04
  1.6497E-03 -1.7607E-03  2.7978E-04
  2.0382E-03 -2.0569E-03  2.2158E-04
  2.2042E-03 -2.4020E-03  2.7975E-04
  2.2406E-03 -2.8067E-03  2.2276E-04
  1.9677E-03 -3.2168E-03  2.7008E-04
  1.5526E-03 -3.5907E-03  2.1792E-04
  8.6804E-04 -3.8965E-03  2.7970E-04
  9.8859E-05 -4.0122E-03  2.2063E-04
 -7.0408E-04 -3.9930E-03  2.7970E-04
 -1.4549E-03 -3.7456E-03  2.3118E-04
 -1.9436E-03 -3.4000E-03  2.9901E-04
 -2.2734E-03 -2.9728E-03  2.4416E-04
 -2.2669E-03 -2.5419E-03  2.9904E-04
 -2.1133E-03 -2.1754E-03  2.4600E-04
 -1.7124E-03 -1.8571E-03  2.9907E-04
 -1.2298E-03 -1.6446E-03  2.4572E-04
 -6.2712E-04 -1.4954E-03  2.9909E-04
 -3.0633E-04 -1.4665E-03  2.4361E-04
  2.0261E-04 -7.1398E-04  2.6050E-04
  5.5055E-04 -7.3930E-04  2.1045E-04
  1.0468E-03 -7.9114E-04  2.7015E-04
  1.4891E-03 -9.0177E-04  2.1798E-04
  1.7703E-03 -1.0371E-03  2.7013E-04
  1.9589E-03 -1.2125E-03  2.1947E-04
  1.9052E-03 -1.4036E-03  2.7975E-04
  1.7176E-03 -1.5982E-03  2.2970E-04
  1.2732E-03 -1.7796E-03  2.8937E-04
  7.3487E-04 -1.9068E-03  2.3210E-04
  6.2696E-05 -1.9821E-03  2.9901E-04
 -6.2334E-04 -1.9472E-03  2.3812E-04
 -1.2105E-03 -1.8568E-03  2.9902E-04
 -1.6992E-03 -1.6817E-03  2.4447E-04
 -1.9197E-03 -1.4856E-03  2.9904E-04
 -2.0069E-03 -1.2846E-03  2.4992E-04
 -1.8282E-03 -1.0950E-03  2.9907E-04
 -1.5391E-03 -9.5001E-04  2.4150E-04
 -1.0806E-03 -8.2973E-04  2.9909E-04
 -5.6985E-04 -7.7246E-04  2.3940E-04
 -2.1226E-04 -7.4292E-04  2.8945E-04
  2.5327E-04 -3.4493E-04  2.0985E-04
  5.2583E-04 -2.8945E-04  2.7015E-04
  1.0197E-03 -3.8412E-04  2.1648E-04
  1.4038E-03 -3.7627E-04  2.7014E-04
  1.7221E-03 -5.0770E-04  2.1586E-04
  1.8378E-03 -5.3059E-04  2.7012E-04
  1.8413E-03 -6.8130E-04  2.2549E-04
  1.5916E-03 -7.2347E-04  2.8939E-04
  1.2250E-03 -8.6091E-04  2.3392E-04
  6.6556E-04 -8.7777E-04  2.8937E-04
  5.4860E-05 -9.5673E-04  2.3692E-04
 -5.7875E-04 -8.9706E-04  2.9902E-04
 -1.1714E-03 -8.9768E-04  2.4296E-04
 -1.5723E-03 -7.7170E-04  2.9903E-04
 -1.8582E-03 -7.2471E-04  2.4961E-04
 -1.8764E-03 -5.6918E-04  3.0871E-04
 -1.7733E-03 -5.3845E-04  2.4541E-04
 -1.4472E-03 -4.0521E-04  2.8944E-04
 -1.0504E-03 -4.0402E-04  2.4241E-04
 -5.4031E-04 -3.0875E-04  2.8945E-04
 -2.6051E-04 -3.5699E-04  2.3639E-04
  3.8174E-04  1.5661E-04  4.6494E-04
  8.9408E-04  2.2604E-04  4.6401E-04
  1.7080E-03  2.0554E-04  4.6002E-04
  2.4572E-03  3.3888E-04  4.5511E-04
  2.9653E-03  3.8168E-04  4.5018E-04
  3.3269E-03  5.6605E-04  4.3578E-04
  3.3025E-03  6.4582E-04  4.2565E-04
  3.0662E-03  8.6164E-04  3.9994E-04
  2.3921E-03  9.5881E-04  3.9624E-04
  1.5274E-03  1.1404E-03  3.6382E-04
  3.8643E-04  1.1642E-03  3.7665E-04
 -7.9488E-04  1.2076E-03  3.7115E-04
 -1.8393E-03  1.0762E-03  4.1580E-04
 -2.7148E-03  9.8849E-04  4.3386E-04
 -3.1311E-03  7.6320E-04  4.7945E-04
 -3.3072E-03  6.5409E-04  4.9569E-04
 -3.0141E-03  4.4038E-04  5.2356E-04
 -2.5440E-03  3.7924E-04  5.2604E-04
 -1.7862E-03  2.3489E-04  5.3341E-04
 -9.4175E-04  2.4438E-04  5.3618E-04
 -4.0129E-04  1.6639E-04  5.3832E-04
  4.4964E-04  4.4597E-04  4.6493E-04
  9.1028E-04  4.6003E-04  4.6493E-04
  1.7869E-03  5.5514E-04  4.5910E-04
  2.5104E-03  6.8510E-04  4.5510E-04
  3.1228E-03  8.9363E-04  4.4070E-04
  3.4103E-03  1.1352E-03  4.3057E-04
  3.5125E-03  1.4393E-03  3.9996E-04
  3.1603E-03  1.7465E-03  3.8158E-04
  2.5926E-03  2.0671E-03  3.3967E-04
  1.5898E-03  2.3235E-03  3.3262E-04
  4.3625E-04  2.4726E-03  2.9501E-04
 -8.1687E-04  2.4751E-03  3.3262E-04
 -2.0031E-03  2.3021E-03  3.3997E-04
 -2.8079E-03  2.0106E-03  4.0603E-04
 -3.3735E-03  1.6704E-03  4.3358E-04
 -3.4053E-03  1.3112E-03  4.8437E-04
 -3.2074E-03  1.0177E-03  5.0153E-04
 -2.6082E-03  7.5847E-04  5.1869E-04
 -1.8782E-03  6.0191E-04  5.2759E-04
 -9.6407E-04  4.8938E-04  5.3831E-04
 -4.7745E-04  4.7011E-04  5.3618E-04
  4.2088E-04  8.1729E-04  4.6493E-04
  1.0014E-03  8.8916E-04  4.6095E-04
  1.9330E-03  1.0326E-03  4.5512E-04
  2.7920E-03  1.3274E-03  4.4072E-04
  3.4154E-03  1.6881E-03  4.2081E-04
  3.8808E-03  2.2195E-03  3.8194E-04
  3.9138E-03  2.7935E-03  3.4735E-04
  3.7160E-03  3.4717E-03  2.7425E-04
  2.9691E-03  4.0990E-03  2.2501E-04
  1.9632E-03  4.6542E-03  1.3176E-04
  5.3801E-04  4.9888E-03  1.0760E-04
 -9.7546E-04  4.9815E-03  7.1837E-05
 -2.3038E-03  4.6222E-03  1.7608E-04
 -3.3840E-03  4.0169E-03  2.2501E-04
 -3.8304E-03  3.2580E-03  3.4244E-04
 -3.9772E-03  2.5700E-03  3.9934E-04
 -3.5669E-03  1.9131E-03  4.6971E-04
 -2.9580E-03  1.4649E-03  4.9666E-04
 -2.0553E-03  1.1010E-03  5.1871E-04
 -1.0699E-03  9.3592E-04  5.2974E-04
 -4.6001E-04  8.5151E-04  5.3342E-04
  5.4995E-04  1.1207E-03  4.6308E-04
  1.1256E-03  1.1696E-03  4.6002E-04
  2.2205E-03  1.4308E-03  4.4654E-04
  3.1660E-03  1.7909E-03  4.2572E-04
  4.0158E-03  2.4018E-03  3.7920E-04
  4.5157E-03  3.1067E-03  3.2290E-04
  4.7885E-03  4.0612E-03  2.1922E-04
  4.4658E-03  5.0332E-03  1.1739E-04
  3.8311E-03  6.0879E-03 -4.5546E-05
  2.4795E-03  6.9494E-03 -1.7117E-04
  8.0201E-04  7.5277E-03 -3.8297E-04
 -1.1835E-03  7.5262E-03 -3.7655E-04
 -3.0383E-03  6.9382E-03 -3.1514E-04
 -4.1720E-03  5.8839E-03 -6.3583E-05
 -4.8799E-03  4.7542E-03  7.2456E-05
 -4.7502E-03  3.5565E-03  2.7885E-04
 -4.3153E-03  2.6897E-03  3.8162E-04
 -3.4202E-03  1.9376E-03  4.6973E-04
 -2.3962E-03  1.5114E-03  5.0249E-04
 -1.2136E-03  1.2038E-03  5.2361E-04
 -5.9733E-04  1.1479E-03  5.2882E-04
  5.7746E-04  1.2234E-03  4.6490E-04
  1.3051E-03  1.3513E-03  4.5725E-04
  2.5544E-03  1.5953E-03  4.4041E-04
  3.7512E-03  2.1361E-03  3.9787E-04
  4.7311E-03  2.8132E-03  3.3759E-04
  5.5485E-03  3.8476E-03  2.1433E-04
  5.8403E-03  4.9941E-03  6.8479E-05
  5.8022E-03  6.4600E-03 -1.7301E-04
  4.8852E-03  7.8486E-03 -4.0099E-04
  3.5028E-03  9.1796E-03 -8.1289E-04
  1.1148E-03  9.9840E-03 -1.1588E-03
 -1.6263E-03  1.0056E-02 -1.4338E-03
 -3.9460E-03  8.9579E-03 -1.0904E-03
 -5.6925E-03  7.5948E-03 -8.6435E-04
 -6.1577E-03  5.6881E-03 -3.2769E-04
 -6.0537E-03  4.3028E-03  9.4775E-06
 -5.1858E-03  3.0234E-03  2.8864E-04
 -4.1096E-03  2.2446E-03  4.0885E-04
 -2.7891E-03  1.6245E-03  4.8932E-04
 -1.4206E-03  1.3509E-03  5.1503E-04
 -6.3615E-04  1.2087E-03  5.2850E-04
  7.3404E-04  1.2081E-03  4.6306E-04
  1.4974E-03  1.2723E-03  4.5999E-04
  2.9861E-03  1.6304E-03  4.2908E-04
  4.3840E-03  2.1382E-03  3.7675E-04
  5.7071E-03  3.0363E-03  2.6326E-04
  6.6965E-03  4.1138E-03  1.0761E-04
  7.4321E-03  5.6980E-03 -1.8187E-04
  7.3202E-03  7.3886E-03 -5.1833E-04
  6.6696E-03  9.4106E-03 -1.0481E-03
  4.6147E-03  1.1097E-02 -1.6132E-03
  1.7154E-03  1.2286E-02 -2.6634E-03
 -2.2094E-03  1.1829E-02 -3.2017E-03
 -5.7288E-03  1.0468E-02 -2.7342E-03
 -7.4415E-03  7.9500E-03 -2.1366E-03
 -8.1948E-03  6.0559E-03 -9.9149E-04
 -7.4149E-03  4.2210E-03 -2.5434E-04
 -6.3130E-03  3.0645E-03  1.3606E-04
 -4.8191E-03  2.0989E-03  3.7183E-04
 -3.2551E-03  1.5722E-03  4.6453E-04
 -1.6295E-03  1.2037E-03  5.1379E-04
 -8.0037E-04  1.1374E-03  5.2390E-04
  7.8295E-04  9.1997E-04  4.6488E-04
  1.7108E-03  1.0573E-03  4.5539E-04
  3.4203E-03  1.3260E-03  4.3059E-04
  5.1177E-03  1.9402E-03  3.4034E-04
  6.7068E-03  2.7395E-03  2.1035E-04
  8.1819E-03  4.0847E-03 -6.6335E-05
  9.1151E-03  5.6578E-03 -4.2544E-04
  9.6182E-03  7.9709E-03 -1.0600E-03
  8.5930E-03  1.0338E-02 -1.7597E-03
  6.6086E-03  1.2731E-02 -3.1204E-03
  1.8471E-03  1.3873E-02 -4.8279E-03
 -3.7362E-03  1.3030E-02 -5.0186E-03
 -7.8247E-03  1.0195E-02 -4.4964E-03
 -1.0225E-02  7.4414E-03 -2.4754E-03
 -9.8867E-03  5.2123E-03 -1.2322E-03
 -8.9618E-03  3.6986E-03 -4.0929E-04
 -7.3080E-03  2.4702E-03  9.7832E-05
 -5.5433E-03  1.7303E-03  3.3390E-04
 -3.6843E-03  1.1645E-03  4.6971E-04
 -1.8371E-03  9.1257E-04  5.1225E-04
 -8.5142E-04  7.8292E-04  5.3336E-04
  9.2729E-04  5.1075E-04  4.6609E-04
  1.9035E-03  5.6273E-04  4.5997E-04
  3.8278E-03  8.6024E-04  4.1162E-04
  5.7975E-03  1.2965E-03  3.2779E-04
  7.7756E-03  2.1563E-03  1.0823E-04
  9.6150E-03  3.2474E-03 -2.0052E-04
  1.1276E-02  5.1523E-03 -8.3243E-04
  1.2000E-02  7.3469E-03 -1.6131E-03
  1.1833E-02  1.0861E-02 -3.1978E-03
  8.1491E-03  1.4007E-02 -4.6413E-03
  2.0785E-03  1.5342E-02 -6.7119E-03
 -5.8866E-03  1.3473E-02 -7.3131E-03
 -1.1764E-02  9.5438E-03 -4.3701E-03
 -1.2424E-02  6.3100E-03 -2.0186E-03
 -1.1889E-02  4.1154E-03 -1.0099E-03
 -1.0157E-02  2.5723E-03 -2.5919E-04
 -8.2190E-03  1.6539E-03  1.2137E-04
 -6.1250E-03  9.7843E-04  3.7180E-04
 -4.0389E-03  6.1434E-04  4.6940E-04
 -2.0110E-03  3.6698E-04  5.2356E-04
 -9.8292E-04  3.2234E-04  5.3275E-04
  9.4931E-04 -1.1744E-04  4.7465E-04
  2.0393E-03 -4.6180E-05  4.5538E-04
  4.1541E-03  9.7858E-05  4.1589E-04
  6.3340E-03  4.5315E-04  2.8528E-04
  8.6579E-03  9.4405E-04  6.3589E-05
  1.1019E-02  1.9534E-03 -4.5389E-04
  1.3215E-02  3.2267E-03 -1.2027E-03
  1.5188E-02  5.7546E-03 -2.7907E-03
  1.5253E-02  8.5645E-03 -5.0517E-03
  1.2406E-02  1.4304E-02 -7.9230E-03
  1.3135E-03  1.8180E-02 -9.8686E-03
 -1.0603E-02  1.4083E-02 -7.0895E-03
 -1.4988E-02  8.4612E-03 -3.9473E-03
 -1.5667E-02  5.0440E-03 -2.1170E-03
 -1.3625E-02  2.4737E-03 -6.5019E-04
 -1.1311E-02  1.2772E-03 -1.5373E-04
 -8.9020E-03  4.8423E-04  2.3478E-04
 -6.5343E-03  1.0304E-04  3.9076E-04
 -4.2958E-03 -1.5657E-04  4.9905E-04
 -2.1162E-03 -2.6698E-04  5.2876E-04
 -9.8842E-04 -3.1806E-04  5.4314E-04
  1.0243E-03 -8.0833E-04  4.7191E-04
  2.1188E-03 -8.0250E-04  4.6486E-04
  4.2831E-03 -7.6849E-04  4.0703E-04
  6.6437E-03 -7.0938E-04  3.0332E-04
  9.1366E-03 -5.3989E-04 -1.4674E-05
  1.1898E-02 -2.7385E-04 -5.5260E-04
  1.4711E-02  4.4182E-04 -1.7737E-03
  1.7339E-02  1.2901E-03 -3.6261E-03
  1.9841E-02  3.6236E-03 -7.0574E-03
  1.7763E-02  6.6890E-03 -1.2983E-02
  2.6115E-03  1.0730E-02 -9.2107E-03
 -1.5603E-02  1.1146E-02 -6.3808E-03
 -2.1040E-02  4.6432E-03 -3.8730E-03
 -1.8413E-02  1.3389E-03 -2.3407E-03
 -1.5221E-02  2.2793E-04 -9.5540E-04
 -1.2147E-02 -5.8191E-04 -3.4230E-05
 -9.2695E-03 -8.2448E-04  2.3936E-04
 -6.7658E-03 -9.5886E-04  4.3051E-04
 -4.3824E-03 -9.9231E-04  5.0090E-04
 -2.1725E-03 -1.0080E-03  5.4314E-04
 -1.0548E-03 -1.0089E-03  5.4835E-04
  9.5913E-04 -1.5219E-03  4.7957E-04
  2.0727E-03 -1.5738E-03  4.6151E-04
  4.2472E-03 -1.6783E-03  4.2570E-04
  6.5204E-03 -1.9200E-03  2.9691E-04
  9.0934E-03 -2.2208E-03  6.8482E-05
  1.1845E-02 -2.7579E-03 -5.8991E-04
  1.4779E-02 -3.3293E-03 -1.7698E-03
  1.7661E-02 -4.3251E-03 -3.8379E-03
  2.0653E-02 -5.4858E-03 -7.1173E-03
  1.9501E-02 -7.2989E-03 -8.2733E-03
  5.7688E-03 -5.3100E-03 -6.8084E-03
 -1.7442E-02 -4.9955E-03 -3.3954E-03
 -2.4798E-02 -4.9674E-03 -3.0039E-03
 -1.8694E-02 -4.2933E-03 -1.8234E-03
 -1.5546E-02 -3.3096E-03 -1.0657E-03
 -1.2120E-02 -2.7428E-03 -1.9989E-04
 -9.2790E-03 -2.3234E-03  2.7392E-04
 -6.6535E-03 -2.0575E-03  4.2104E-04
 -4.3449E-03 -1.8495E-03  5.1376E-04
 -2.1255E-03 -1.7490E-03  5.4040E-04
 -9.8847E-04 -1.6980E-03  5.5785E-04
  9.4816E-04 -2.1808E-03  4.7225E-04
  1.9623E-03 -2.2315E-03  4.6489E-04
  3.9535E-03 -2.5194E-03  4.2725E-04
  6.1012E-03 -2.9356E-03  3.6206E-04
  8.3444E-03 -3.7558E-03  1.3759E-04
  1.0789E-02 -4.7784E-03 -2.2009E-04
  1.3282E-02 -6.7255E-03 -1.2254E-03
  1.5182E-02 -8.8666E-03 -2.7665E-03
  1.6626E-02 -1.3279E-02 -4.0157E-03
  1.7939E-02 -1.7524E-02 -4.8109E-03
  5.3269E-03 -2.0951E-02 -2.8084E-03
 -1.5259E-02 -1.9258E-02  3.2716E-04
 -2.0608E-02 -1.3207E-02 -9.5572E-04
 -1.6754E-02 -8.8953E-03 -9.0908E-04
 -1.3747E-02 -6.6219E-03 -5.8488E-04
 -1.1160E-02 -4.7390E-03 -8.3141E-05
 -8.6098E-03 -3.7746E-03  2.4612E-04
 -6.2919E-03 -3.0383E-03  4.4033E-04
 -4.0785E-03 -2.6536E-03  5.0553E-04
 -2.0210E-03 -2.3880E-03  5.4318E-04
 -9.7903E-04 -2.3382E-03  5.4717E-04
  8.0262E-04 -2.6330E-03  4.6983E-04
  1.7542E-03 -2.7810E-03  4.6033E-04
  3.5430E-03 -3.0732E-03  4.4532E-04
  5.3693E-03 -3.7435E-03  3.8350E-04
  7.2505E-03 -4.6233E-03  2.8865E-04
  9.1266E-03 -6.2045E-03  1.4674E-05
  1.0690E-02 -8.1082E-03 -3.5700E-04
  1.1867E-02 -1.1398E-02 -1.0554E-03
  1.1994E-02 -1.4644E-02 -1.2610E-03
  1.1608E-02 -2.0215E-02 -1.7924E-03
  4.0352E-03 -2.6385E-02 -1.3044E-03
 -9.2051E-03 -2.2714E-02 -7.0809E-04
 -1.4432E-02 -1.5468E-02 -7.4285E-04
 -1.3141E-02 -1.1350E-02 -4.8093E-04
 -1.1389E-02 -8.1078E-03 -1.6137E-04
 -9.5496E-03 -6.2431E-03  8.6209E-05
 -7.5781E-03 -4.7112E-03  3.2289E-04
 -5.6040E-03 -3.8612E-03  4.4312E-04
 -3.6946E-03 -3.2150E-03  5.1382E-04
 -1.8230E-03 -2.9286E-03  5.3373E-04
 -8.3197E-04 -2.7846E-03  5.4323E-04
  7.4241E-04 -2.9583E-03  4.5731E-04
  1.5221E-03 -3.0344E-03  4.5516E-04
  3.0431E-03 -3.4487E-03  4.4291E-04
  4.5510E-03 -4.0421E-03  4.2085E-04
  6.0300E-03 -5.1208E-03  3.5260E-04
  7.3041E-03 -6.4528E-03  2.6907E-04
  8.3709E-03 -8.5513E-03  4.6468E-05
  8.6461E-03 -1.0881E-02 -8.3136E-05
  8.4027E-03 -1.4051E-02 -3.6059E-04
  6.1986E-03 -1.7335E-02 -3.3731E-04
  2.0713E-03 -2.0522E-02 -6.3024E-04
 -4.3455E-03 -2.0462E-02 -8.8475E-04
 -9.0125E-03 -1.5437E-02 -6.3465E-04
 -9.3937E-03 -1.1320E-02 -2.6895E-04
 -9.0008E-03 -8.7929E-03  2.3233E-05
 -7.7636E-03 -6.6434E-03  2.6417E-04
 -6.3689E-03 -5.2986E-03  3.8470E-04
 -4.7956E-03 -4.2035E-03  4.7956E-04
 -3.1945E-03 -3.6053E-03  5.0927E-04
 -1.5906E-03 -3.1861E-03  5.2857E-04
 -7.7513E-04 -3.1091E-03  5.2858E-04
  5.6778E-04 -2.9809E-03  4.4541E-04
  1.2830E-03 -3.1365E-03  4.4449E-04
  2.5353E-03 -3.4456E-03  4.4049E-04
  3.7623E-03 -4.1122E-03  4.2517E-04
  4.8397E-03 -4.9669E-03  4.0616E-04
  5.7877E-03 -6.2948E-03  3.4556E-04
  6.2621E-03 -7.8325E-03  2.8864E-04
  6.4152E-03 -9.8350E-03  1.6448E-04
  5.5413E-03 -1.1924E-02  9.7817E-05
  4.0317E-03 -1.4007E-02 -5.0737E-05
  9.0953E-04 -1.5653E-02 -1.7604E-04
 -2.7018E-03 -1.5011E-02 -3.7470E-04
 -5.2916E-03 -1.2989E-02 -3.8635E-04
 -6.8203E-03 -1.0546E-02 -7.2758E-05
 -6.7119E-03 -8.2529E-03  2.0547E-04
 -6.1808E-03 -6.6126E-03  3.4494E-04
 -5.1381E-03 -5.2017E-03  4.5019E-04
 -3.9794E-03 -4.3064E-03  4.8481E-04
 -2.6772E-03 -3.6071E-03  5.0901E-04
 -1.3469E-03 -3.2873E-03  5.1301E-04
 -5.9714E-04 -3.1277E-03  5.1393E-04
  5.1765E-04 -2.8673E-03  4.3260E-04
  1.0573E-03 -2.9321E-03  4.3565E-04
  2.0931E-03 -3.2829E-03  4.2982E-04
  3.0297E-03 -3.7736E-03  4.2582E-04
  3.8813E-03 -4.5946E-03  4.1233E-04
  4.4385E-03 -5.5689E-03  3.9638E-04
  4.8004E-03 -6.8632E-03  3.5200E-04
  4.5550E-03 -8.2586E-03  3.1312E-04
  3.9574E-03 -9.7386E-03  2.3482E-04
  2.4703E-03 -1.1085E-02  1.7121E-04
  5.6527E-04 -1.1743E-02  7.4290E-05
 -1.6827E-03 -1.1701E-02  9.7831E-06
 -3.6964E-03 -1.0514E-02  3.0269E-05
 -4.6575E-03 -8.9041E-03  1.8591E-04
 -5.0880E-03 -7.3498E-03  3.1865E-04
 -4.7124E-03 -5.9015E-03  4.3063E-04
 -4.1140E-03 -4.8512E-03  4.6738E-04
 -3.2009E-03 -3.9694E-03  4.9433E-04
 -2.2057E-03 -3.4440E-03  4.9743E-04
 -1.1111E-03 -3.0740E-03  4.9928E-04
 -5.4426E-04 -3.0040E-03  4.9837E-04
  3.7204E-04 -2.4966E-03  4.1610E-04
  8.7472E-04 -2.6101E-03  4.1793E-04
  1.6937E-03 -2.8343E-03  4.1608E-04
  2.4643E-03 -3.2961E-03  4.1821E-04
  3.0444E-03 -3.8765E-03  4.1604E-04
  3.5018E-03 -4.6868E-03  4.0744E-04
  3.5725E-03 -5.5887E-03  3.9640E-04