# vtk DataFile Version 3.0
model R-SWMS
ASCII
DATASET RECTILINEAR_GRID
DIMENSIONS      21    21    21
X_COORDINATES      21 float
 -5.0000E+00 -4.5000E+00 -4.0000E+00 -3.5000E+00 -3.0000E+00 -2.5000E+00 -2.0000E+00 -1.5000E+00 -1.0000E+00 -5.0000E-01  0.0000E+00  5.0000E-01  1.0000E+00  1.5000E+00  2.0000E+00  2.5000E+00  3.0000E+00  3.5000E+00  4.0000E+00  4.5000E+00  5.0000E+00
Y_COORDINATES      21 float
-5.0000E+00-4.5000E+00-4.0000E+00-3.5000E+00-3.0000E+00-2.5000E+00-2.0000E+00-1.5000E+00-1.0000E+00-5.0000E-01 0.0000E+00 5.0000E-01 1.0000E+00 1.5000E+00 2.0000E+00 2.5000E+00 3.0000E+00 3.5000E+00 4.0000E+00 4.5000E+00 5.0000E+00
Z_COORDINATES      21 float
 0.0000E+00-5.0000E-01-1.0000E+00-1.5000E+00-2.0000E+00-2.5000E+00-3.0000E+00-3.5000E+00-4.0000E+00-4.5000E+00-5.0000E+00-5.5000E+00-6.0000E+00-6.5000E+00-7.0000E+00-7.5000E+00-8.0000E+00-8.5000E+00-9.0000E+00-9.5000E+00-1.0000E+01
     POINT_DATA    9261
SCALARS velocity float 3
LOOKUP_TABLE default
  4.2315E-04  2.0383E-04  2.4912E-04
  8.6775E-04  1.5257E-04  3.0514E-04
  1.7033E-03  2.6223E-04  2.4792E-04
  2.3838E-03  2.7652E-04  2.9559E-04
  2.9587E-03  4.2607E-04  2.3896E-04
  3.2176E-03  4.8622E-04  2.8601E-04
  3.3002E-03  6.8816E-04  2.1985E-04
  2.9550E-03  7.8164E-04  2.6690E-04
  2.4032E-03  9.8772E-04  1.9421E-04
  1.4630E-03  1.0484E-03  2.4781E-04
  3.9494E-04  1.1658E-03  1.8049E-04
 -7.5772E-04  1.1056E-03  2.5734E-04
 -1.8413E-03  1.0848E-03  1.9480E-04
 -2.5927E-03  8.9599E-04  2.8596E-04
 -3.1356E-03  7.9179E-04  2.4010E-04
 -3.1793E-03  5.7199E-04  3.1460E-04
 -3.0139E-03  4.8623E-04  2.7172E-04
 -2.4694E-03  3.0511E-04  3.3371E-04
 -1.7825E-03  2.8784E-04  2.8188E-04
 -9.1062E-04  1.8117E-04  3.3374E-04
 -4.5174E-04  2.2289E-04  2.8249E-04
  3.7190E-04  4.2434E-04  3.0515E-04
  9.0500E-04  4.6278E-04  2.4763E-04
  1.7402E-03  5.3398E-04  2.9560E-04
  2.4970E-03  6.8115E-04  2.4255E-04
  3.0224E-03  8.5809E-04  2.8603E-04
  3.4038E-03  1.1145E-03  2.2255E-04
  3.3889E-03  1.3870E-03  2.6692E-04
  3.1691E-03  1.7036E-03  1.9034E-04
  2.4829E-03  1.9921E-03  2.3829E-04
  1.5938E-03  2.2347E-03  1.5339E-04
  4.1459E-04  2.3684E-03  2.1921E-04
 -8.1667E-04  2.3636E-03  1.4773E-04
 -1.9015E-03  2.2064E-03  2.2875E-04
 -2.8100E-03  1.9379E-03  1.9182E-04
 -3.2315E-03  1.5967E-03  2.8597E-04
 -3.4009E-03  1.2822E-03  2.4548E-04
 -3.0937E-03  9.6768E-04  3.1462E-04
 -2.6050E-03  7.5590E-04  2.7263E-04
 -1.8212E-03  5.8163E-04  3.3372E-04
 -9.5651E-04  4.9405E-04  2.8248E-04
 -4.1002E-04  4.4816E-04  3.3374E-04
  4.8036E-04  8.2245E-04  2.4912E-04
  9.7739E-04  8.5820E-04  3.0514E-04
  1.9181E-03  1.0331E-03  2.4345E-04
  2.7079E-03  1.2729E-03  2.9558E-04
  3.3938E-03  1.6783E-03  2.2256E-04
  3.7466E-03  2.1354E-03  2.5740E-04
  3.9008E-03  2.7349E-03  1.7307E-04
  3.5600E-03  3.3313E-03  2.0016E-04
  2.9593E-03  3.9571E-03  1.0246E-04
  1.8393E-03  4.4458E-03  1.2389E-04
  5.3636E-04  4.7474E-03  2.4718E-05
 -9.1964E-04  4.7269E-03  1.0483E-04
 -2.2947E-03  4.4039E-03  5.3310E-05
 -3.2024E-03  3.8076E-03  1.7156E-04
 -3.8154E-03  3.1553E-03  1.5817E-04
 -3.8083E-03  2.4404E-03  2.6691E-04
 -3.5447E-03  1.8900E-03  2.3834E-04
 -2.8555E-03  1.4015E-03  3.1463E-04
 -2.0425E-03  1.1081E-03  2.7740E-04
 -1.0441E-03  8.9153E-04  3.3373E-04
 -5.1490E-04  8.5579E-04  2.8129E-04
  4.8631E-04  1.0775E-03  3.0513E-04
  1.1138E-03  1.1794E-03  2.4494E-04
  2.1549E-03  1.3730E-03  2.8605E-04
  3.1386E-03  1.7919E-03  2.2406E-04
  3.8849E-03  2.3071E-03  2.5741E-04
  4.4693E-03  3.0639E-03  1.6831E-04
  4.5847E-03  3.8841E-03  1.7157E-04
  4.4305E-03  4.8874E-03  4.8844E-05
  3.5974E-03  5.7988E-03  4.7648E-05
  2.4341E-03  6.6351E-03 -1.2685E-04
  6.9559E-04  7.0845E-03 -1.2387E-04
 -1.1860E-03  7.0819E-03 -2.4030E-04
 -2.8206E-03  6.4703E-03 -9.5291E-05
 -4.1247E-03  5.6006E-03 -8.8747E-05
 -4.5987E-03  4.4414E-03  9.5309E-05
 -4.6894E-03  3.4705E-03  1.2600E-04
 -4.1325E-03  2.5405E-03  2.5739E-04
 -3.3762E-03  1.9324E-03  2.4490E-04
 -2.3312E-03  1.4349E-03  3.2417E-04
 -1.2017E-03  1.2136E-03  2.7621E-04
 -5.2443E-04  1.0965E-03  3.3372E-04
  6.3111E-04  1.2354E-03  2.4851E-04
  1.2729E-03  1.2920E-03  2.9559E-04
  2.5189E-03  1.6060E-03  2.3181E-04
  3.6420E-03  2.0450E-03  2.6695E-04
  4.6604E-03  2.7932E-03  1.7636E-04
  5.3235E-03  3.6650E-03  1.8111E-04
  5.7565E-03  4.8856E-03  2.5614E-05
  5.4746E-03  6.1321E-03 -2.8588E-05
  4.7837E-03  7.5326E-03 -2.4535E-04
  3.1249E-03  8.6269E-03 -3.5251E-04
  1.0089E-03  9.3437E-03 -6.3859E-04
 -1.5338E-03  9.1553E-03 -6.3830E-04
 -3.8839E-03  8.3767E-03 -6.2851E-04
 -5.2311E-03  6.8558E-03 -3.6208E-04
 -6.0008E-03  5.4761E-03 -1.9238E-04
 -5.7091E-03  3.9983E-03  6.6718E-05
 -5.0667E-03  2.9899E-03  1.3673E-04
 -3.9611E-03  2.1164E-03  2.7647E-04
 -2.7417E-03  1.6339E-03  2.5504E-04
 -1.3825E-03  1.2872E-03  3.3371E-04
 -6.8233E-04  1.2234E-03  2.7830E-04
  6.6744E-04  1.1490E-03  3.0512E-04
  1.4737E-03  1.2848E-03  2.4373E-04
  2.9079E-03  1.5493E-03  2.8603E-04
  4.3053E-03  2.1376E-03  1.9633E-04
  5.5049E-03  2.8788E-03  1.9065E-04
  6.5600E-03  4.0599E-03  4.3783E-05
  7.0518E-03  5.3794E-03 -2.8588E-05
  7.1524E-03  7.1530E-03 -2.9119E-04
  6.0921E-03  8.8261E-03 -4.6679E-04
  4.3592E-03  1.0440E-02 -9.2304E-04
  1.2239E-03  1.1172E-02 -1.2287E-03
 -2.2752E-03  1.0926E-02 -1.4513E-03
 -5.1199E-03  9.3635E-03 -1.2574E-03
 -7.1457E-03  7.6054E-03 -8.6575E-04
 -7.4561E-03  5.5932E-03 -4.1925E-04
 -7.1515E-03  4.1662E-03 -1.3432E-04
 -6.0145E-03  2.8833E-03  1.3344E-04
 -4.6920E-03  2.1044E-03  1.8530E-04
 -3.1604E-03  1.4920E-03  3.0508E-04
 -1.5979E-03  1.2195E-03  2.6845E-04
 -7.3415E-04  1.0774E-03  3.2417E-04
  8.1820E-04  9.3976E-04  2.4731E-04
  1.6733E-03  9.9635E-04  3.0510E-04
  3.3449E-03  1.3422E-03  2.2196E-04
  4.9715E-03  1.8303E-03  2.3832E-04
  6.5426E-03  2.7341E-03  9.4424E-05
  7.8242E-03  3.8263E-03  1.9060E-05
  8.8648E-03  5.5418E-03 -2.5131E-04
  8.9213E-03  7.3875E-03 -4.8583E-04
  8.2602E-03  9.8061E-03 -1.0194E-03
  5.4707E-03  1.1694E-02 -1.4760E-03
  1.5247E-03  1.2716E-02 -2.1805E-03
 -3.3422E-03  1.1864E-02 -2.3234E-03
 -7.4665E-03  9.7503E-03 -1.8032E-03
 -9.0013E-03  7.1867E-03 -1.1335E-03
 -9.4427E-03  5.2120E-03 -5.8295E-04
 -8.4191E-03  3.5497E-03 -1.4294E-04
 -7.0688E-03  2.4927E-03  3.7826E-05
 -5.3525E-03  1.6491E-03  2.2878E-04
 -3.5908E-03  1.1860E-03  2.3744E-04
 -1.7972E-03  8.6283E-04  3.2416E-04
 -8.8013E-04  8.0743E-04  2.7113E-04
  8.4857E-04  4.7196E-04  3.0510E-04
  1.8565E-03  5.8308E-04  2.3925E-04
  3.7420E-03  8.0083E-04  2.7648E-04
  5.6400E-03  1.3164E-03  1.5759E-04
  7.5010E-03  1.9968E-03  1.1437E-04
  9.2964E-03  3.2233E-03 -1.4175E-04
  1.0613E-02  4.6730E-03 -3.6203E-04
  1.1494E-02  7.0732E-03 -9.4948E-04
  1.0398E-02  9.5077E-03 -1.5711E-03
  7.7188E-03  1.2680E-02 -2.6382E-03
  1.3945E-03  1.4035E-02 -3.1983E-03
 -5.6110E-03  1.2568E-02 -2.9313E-03
 -9.7972E-03  9.3640E-03 -2.0661E-03
 -1.1825E-02  6.4157E-03 -1.1652E-03
 -1.1093E-02  4.0677E-03 -4.5726E-04
 -9.8023E-03  2.6564E-03 -1.6586E-04
 -7.9151E-03  1.6059E-03  1.2390E-04
 -5.9487E-03  1.0128E-03  1.7813E-04
 -3.9468E-03  5.7676E-04  3.0506E-04
 -1.9595E-03  3.8821E-04  2.6844E-04
 -9.0574E-04  2.9556E-04  3.3369E-04
  9.7311E-04 -1.0428E-04  2.4492E-04
  2.0022E-03 -7.1507E-05  2.9556E-04
  4.0345E-03  1.1559E-04  2.0795E-04
  6.1675E-03  3.8606E-04  2.0971E-04
  8.3451E-03  9.6291E-04  5.6589E-06
  1.0501E-02  1.7056E-03 -1.6199E-04
  1.2554E-02  3.1484E-03 -7.0553E-04
  1.3756E-02  4.7997E-03 -1.3428E-03
  1.4142E-02  8.0655E-03 -2.6457E-03
  9.9977E-03  1.1321E-02 -4.3683E-03
  2.1758E-03  1.5622E-02 -4.8021E-03
 -8.0127E-03  1.5074E-02 -3.2450E-03
 -1.4599E-02  8.8724E-03 -1.9835E-03
 -1.4298E-02  4.5612E-03 -1.0284E-03
 -1.3057E-02  2.6091E-03 -4.9860E-04
 -1.0881E-02  1.2148E-03 -2.8584E-05
 -8.6259E-03  5.4889E-04  8.6071E-05
 -6.3817E-03  8.5788E-05  2.6690E-04
 -4.1851E-03 -1.3287E-04  2.4846E-04
 -2.0784E-03 -2.7648E-04  3.3369E-04
 -1.0112E-03 -3.0330E-04  2.7828E-04
  9.5346E-04 -8.0567E-04  3.0511E-04
  2.0594E-03 -7.9433E-04  2.3538E-04
  4.1996E-03 -7.6746E-04  2.7648E-04
  6.4160E-03 -6.8813E-04  1.3167E-04
  8.8207E-03 -5.6708E-04  5.7185E-05
  1.1295E-02 -2.5012E-04 -3.3767E-04
  1.3707E-02  1.7623E-04 -8.1921E-04
  1.5963E-02  1.2474E-03 -1.9015E-03
  1.6919E-02  2.5653E-03 -3.4267E-03
  1.6282E-02  7.0035E-03 -5.5103E-03
  5.1458E-03  1.3683E-02 -7.3716E-03
 -1.3798E-02  1.0051E-02 -3.0821E-03
 -2.0310E-02  3.9164E-03 -2.1890E-03
 -1.7221E-02  1.5297E-03 -1.3173E-03
 -1.4440E-02 -1.9050E-05 -4.1911E-04
 -1.1638E-02 -5.2017E-04 -1.2297E-04
 -9.0443E-03 -8.3391E-04  1.8108E-04
 -6.5706E-03 -9.2819E-04  2.0256E-04
 -4.3091E-03 -9.7716E-04  3.1460E-04
 -2.1183E-03 -9.9154E-04  2.7589E-04
 -9.9156E-04 -9.9633E-04  3.3370E-04
  9.8686E-04 -1.5160E-03  2.4791E-04
  2.0404E-03 -1.5398E-03  3.0511E-04
  4.1237E-03 -1.6711E-03  2.1004E-04
  6.3679E-03 -1.8494E-03  2.0972E-04
  8.7171E-03 -2.1907E-03 -9.2332E-06
  1.1244E-02 -2.5775E-03 -2.1916E-04
  1.3804E-02 -3.2228E-03 -9.1748E-04
  1.6146E-02 -3.8614E-03 -1.8093E-03
  1.8357E-02 -4.8787E-03 -3.4080E-03
  2.1117E-02 -5.0902E-03 -5.6611E-03
  6.2465E-03 -4.1776E-03 -2.8986E-03
 -1.7777E-02 -2.0260E-03 -4.1470E-03
 -2.2843E-02 -3.8837E-03 -1.9754E-03
 -1.8234E-02 -3.7325E-03 -1.2093E-03
 -1.4645E-02 -3.2163E-03 -5.5635E-04
 -1.1696E-02 -2.6727E-03 -2.8585E-05
 -8.9419E-03 -2.3097E-03  9.5009E-05
 -6.5249E-03 -2.0113E-03  2.7644E-04
 -4.2297E-03 -1.8379E-03  2.5711E-04
 -2.0976E-03 -1.7114E-03  3.4324E-04
 -1.0184E-03 -1.6894E-03  2.8544E-04
  8.7724E-04 -2.1264E-03  3.0513E-04
  1.9106E-03 -2.2330E-03  2.4195E-04
  3.8900E-03 -2.4408E-03  2.8603E-04
  5.9205E-03 -2.9288E-03  1.6892E-04
  8.0924E-03 -3.5506E-03  1.3344E-04
  1.0318E-02 -4.7035E-03 -1.8523E-04
  1.2423E-02 -6.0164E-03 -5.3352E-04
  1.4317E-02 -8.4571E-03 -1.2759E-03
  1.5690E-02 -1.0863E-02 -1.9708E-03
  1.6896E-02 -1.6089E-02 -2.9982E-03
  8.2099E-03 -2.0610E-02 -3.9480E-03
 -1.3883E-02 -1.7490E-02 -2.2148E-04
 -2.2018E-02 -1.1518E-02 -1.1423E-04
 -1.6146E-02 -8.6483E-03 -5.4818E-04
 -1.3380E-02 -6.0589E-03 -2.2864E-04
 -1.0751E-02 -4.7188E-03 -5.3602E-05
 -8.3828E-03 -3.6315E-03  1.9063E-04
 -6.1104E-03 -3.0389E-03  2.1241E-04
 -4.0091E-03 -2.5885E-03  3.2416E-04
 -1.9725E-03 -2.3855E-03  2.8068E-04
 -9.1536E-04 -2.2836E-03  3.4326E-04
  8.3677E-04 -2.6390E-03  2.4555E-04
  1.7259E-03 -2.7033E-03  3.0514E-04
  3.4681E-03 -3.0765E-03  2.3093E-04
  5.2580E-03 -3.6039E-03  2.5742E-04
  7.0592E-03 -4.6052E-03  1.2899E-04
  8.7779E-03 -5.8281E-03  6.6716E-05
  1.0360E-02 -7.9264E-03 -2.4983E-04
  1.1298E-02 -1.0203E-02 -4.7631E-04
  1.1784E-02 -1.4065E-02 -8.3957E-04
  1.1368E-02 -1.7923E-02 -7.9025E-04
  4.2982E-03 -2.3732E-02 -8.9118E-04
 -8.6864E-03 -2.4555E-02 -9.9001E-04
 -1.4442E-02 -1.6154E-02 -2.7853E-04
 -1.2774E-02 -1.0664E-02 -1.7146E-04
 -1.1105E-02 -8.0677E-03 -1.0034E-04
 -9.2684E-03 -5.9184E-03  1.0484E-04
 -7.3780E-03 -4.7048E-03  1.5669E-04
 -5.4819E-03 -3.7277E-03  2.8601E-04
 -3.6092E-03 -3.2141E-03  2.6012E-04
 -1.7927E-03 -2.8558E-03  3.4327E-04
 -8.7310E-04 -2.7886E-03  2.8309E-04
  6.7708E-04 -2.8848E-03  2.9563E-04
  1.4963E-03 -3.0394E-03  2.4168E-04
  2.9895E-03 -3.3470E-03  2.9561E-04
  4.4731E-03 -4.0392E-03  2.2049E-04
  5.8680E-03 -4.9289E-03  2.4788E-04
  7.1775E-03 -6.3977E-03  1.1409E-04
  8.0486E-03 -8.0962E-03  7.6244E-05
  8.5696E-03 -1.0633E-02 -1.1822E-04
  7.9692E-03 -1.3261E-02 -1.3337E-04
  6.6497E-03 -1.6987E-02 -1.8038E-04
  1.5810E-03 -2.0943E-02 -7.6192E-05
 -4.8116E-03 -1.9195E-02 -5.2384E-04
 -8.1257E-03 -1.4803E-02 -3.0483E-04
 -9.3315E-03 -1.1303E-02 -1.0302E-04
 -8.6342E-03 -8.4055E-03  7.6240E-05
 -7.6133E-03 -6.6089E-03  1.2123E-04
 -6.1920E-03 -5.0956E-03  2.5740E-04
 -4.6982E-03 -4.1976E-03  2.4194E-04
 -3.1372E-03 -3.4948E-03  3.1467E-04
 -1.5657E-03 -3.1862E-03  2.7297E-04
 -7.0568E-04 -3.0278E-03  3.3377E-04
  6.1872E-04 -2.9863E-03  2.3485E-04
  1.2636E-03 -3.0566E-03  2.8611E-04
  2.5066E-03 -3.4454E-03  2.3811E-04
  3.6761E-03 -3.9955E-03  2.8607E-04
  4.7820E-03 -4.9471E-03  2.1245E-04
  5.6106E-03 -6.0873E-03  2.3834E-04
  6.2258E-03 -7.7296E-03  1.3405E-04
  6.1332E-03 -9.5071E-03  1.4296E-04
  5.5995E-03 -1.1662E-02  2.4717E-05
  3.6875E-03 -1.3731E-02  3.8114E-05
  9.2808E-04 -1.4974E-02 -1.2297E-04
 -2.5488E-03 -1.4840E-02 -9.5281E-05
 -5.4200E-03 -1.2644E-02 -1.1346E-04
 -6.3759E-03 -1.0169E-02  2.8591E-05
 -6.6316E-03 -8.1674E-03  1.0098E-04
 -5.9584E-03 -6.3826E-03  2.2880E-04
 -5.0641E-03 -5.1791E-03  2.2526E-04
 -3.8810E-03 -4.1814E-03  3.0514E-04
 -2.6389E-03 -3.6080E-03  2.6493E-04
 -1.3256E-03 -3.2044E-03  3.2425E-04
 -6.4494E-04 -3.1293E-03  2.7061E-04
  4.5781E-04 -2.7993E-03  2.8613E-04
  1.0506E-03 -2.9349E-03  2.3337E-04
  2.0505E-03 -3.2045E-03  2.8612E-04
  3.0044E-03 -3.7679E-03  2.3276E-04
  3.7762E-03 -4.4771E-03  2.7654E-04
  4.4183E-03 -5.5202E-03  2.0977E-04
  4.6287E-03 -6.6976E-03  2.3835E-04
  4.5690E-03 -8.1188E-03  1.5878E-04
  3.7461E-03 -9.5415E-03  1.8111E-04
  2.5109E-03 -1.0771E-02  7.9824E-05
  4.7178E-04 -1.1599E-02  1.1437E-04
 -1.7406E-03 -1.1266E-02  4.1698E-06
 -3.4552E-03 -1.0227E-02  9.5316E-05
 -4.6600E-03 -8.7089E-03  1.0218E-04
 -4.8479E-03 -7.1264E-03  2.1927E-04
 -4.6759E-03 -5.8511E-03  2.1483E-04
 -3.9907E-03 -4.7202E-03  2.9561E-04
 -3.1682E-03 -3.9609E-03  2.5779E-04
 -2.1602E-03 -3.3618E-03  3.1473E-04
 -1.1031E-03 -3.0779E-03  2.6318E-04
 -4.7688E-04 -2.9376E-03  3.1474E-04
  4.2267E-04 -2.4913E-03  2.2832E-04
  8.5844E-04 -2.5467E-03  2.8615E-04
  1.6852E-03 -2.8298E-03  2.2951E-04
  2.4034E-03 -3.2237E-03  2.8612E-04
  3.0369E-03 -3.8517E-03  2.2650E-04
  3.3901E-03 -4.5869E-03  2.7655E-04
  3.5781E-03 -5.5174E-03  2.0859E-04
  3.2894E-03 -6.4930E-03  2.5743E-04
  2.7386E-03 -7.4555E-03  1.7519E-04
  1.6302E-03 -8.2845E-03  2.1927E-04
  2.9523E-04 -8.6403E-03  1.3495E-04
 -1.1774E-03 -8.5942E-03  2.0020E-04
 -2.5154E-03 -7.9025E-03  1.4569E-04
 -3.2750E-03 -6.9410E-03  2.3836E-04
 -3.7086E-03 -5.8945E-03  2.1514E-04
 -3.5521E-03 -4.8729E-03  2.9561E-04
 -3.1900E-03 -4.0764E-03  2.5153E-04
 -2.5226E-03 -3.3953E-03  3.1473E-04
 -1.7720E-03 -2.9755E-03  2.6021E-04
 -9.0136E-04 -2.6755E-03  3.1476E-04
 -4.4115E-04 -2.6183E-03  2.5515E-04
  2.8616E-04 -1.9793E-03  2.7663E-04
  7.1571E-04 -2.0678E-03  2.2446E-04
  1.3735E-03 -2.2320E-03  2.7662E-04
  1.9842E-03 -2.5690E-03  2.2564E-04
  2.4130E-03 -2.9900E-03  2.7659E-04
  2.7276E-03 -3.5555E-03  2.2233E-04
  2.7227E-03 -4.1722E-03  2.7656E-04
  2.5434E-03 -4.8493E-03  2.1426E-04
  1.9547E-03 -5.4923E-03  2.6699E-04
  1.1913E-03 -5.9617E-03  1.9487E-04
  1.6209E-04 -6.2548E-03  2.5744E-04
 -9.0909E-04 -6.1348E-03  1.9219E-04
 -1.8022E-03 -5.7831E-03  2.6699E-04
 -2.5180E-03 -5.1552E-03  2.2230E-04
 -2.7798E-03 -4.4487E-03  2.9563E-04
 -2.8301E-03 -3.7802E-03  2.4736E-04
 -2.5131E-03 -3.1617E-03  3.0520E-04
 -2.0727E-03 -2.7130E-03  2.5455E-04
 -1.4403E-03 -2.3512E-03  3.0523E-04
 -7.5028E-04 -2.1715E-03  2.4830E-04
 -3.0524E-04 -2.0795E-03  2.9570E-04
  2.8856E-04 -1.4023E-03  2.1702E-04
  6.0574E-04 -1.4309E-03  2.6710E-04
  1.1849E-03 -1.5653E-03  2.2089E-04
  1.6454E-03 -1.7599E-03  2.7662E-04
  2.0388E-03 -2.0585E-03  2.1938E-04
  2.2080E-03 -2.3987E-03  2.6706E-04
  2.2424E-03 -2.8057E-03  2.2234E-04
  1.9693E-03 -3.2186E-03  2.7657E-04
  1.5538E-03 -3.5904E-03  2.2053E-04
  8.6778E-04 -3.8955E-03  2.7655E-04
  9.9830E-05 -4.0137E-03  2.2022E-04
 -7.0566E-04 -3.9956E-03  2.8608E-04
 -1.4537E-03 -3.7489E-03  2.3304E-04
 -1.9407E-03 -3.4046E-03  3.0517E-04
 -2.2764E-03 -2.9756E-03  2.4856E-04
 -2.2652E-03 -2.5466E-03  3.0520E-04
 -2.1094E-03 -2.1768E-03  2.5127E-04
 -1.7122E-03 -1.8553E-03  3.0523E-04
 -1.2314E-03 -1.6481E-03  2.4831E-04
 -6.2958E-04 -1.4976E-03  2.9571E-04
 -3.0525E-04 -1.4678E-03  2.4325E-04
  2.0033E-04 -7.1069E-04  2.6710E-04
  5.5090E-04 -7.3871E-04  2.1225E-04
  1.0445E-03 -7.9652E-04  2.6710E-04
  1.4857E-03 -9.0381E-04  2.1880E-04
  1.7742E-03 -1.0349E-03  2.7662E-04
  1.9625E-03 -1.2137E-03  2.2236E-04
  1.9028E-03 -1.4068E-03  2.7659E-04
  1.7212E-03 -1.6014E-03  2.2562E-04
  1.2779E-03 -1.7834E-03  2.8611E-04
  7.3314E-04 -1.9062E-03  2.2948E-04
  6.1988E-05 -1.9836E-03  2.9563E-04
 -6.2376E-04 -1.9494E-03  2.3931E-04
 -1.2112E-03 -1.8549E-03  3.0518E-04
 -1.6973E-03 -1.6818E-03  2.4588E-04
 -1.9218E-03 -1.4879E-03  2.9567E-04
 -2.0072E-03 -1.2835E-03  2.4620E-04
 -1.8219E-03 -1.0969E-03  2.9569E-04
 -1.5396E-03 -9.5359E-04  2.4950E-04
 -1.0827E-03 -8.3468E-04  3.0525E-04
 -5.6998E-04 -7.7686E-04  2.4445E-04
 -2.0987E-04 -7.4885E-04  2.9572E-04
  2.4803E-04 -3.4342E-04  2.1464E-04
  5.1990E-04 -2.9572E-04  2.6711E-04
  1.0189E-03 -3.8813E-04  2.1523E-04
  1.4070E-03 -3.7202E-04  2.7663E-04
  1.7235E-03 -5.0376E-04  2.2356E-04
  1.8361E-03 -5.3414E-04  2.7661E-04
  1.8414E-03 -6.8136E-04  2.2235E-04
  1.5928E-03 -7.2485E-04  2.8612E-04
  1.2303E-03 -8.6430E-04  2.2770E-04
  6.6758E-04 -8.7740E-04  2.8611E-04
  5.1261E-05 -9.5726E-04  2.3484E-04
 -5.7698E-04 -9.0600E-04  2.9564E-04
 -1.1683E-03 -8.9649E-04  2.4796E-04
 -1.5737E-03 -7.6299E-04  3.0520E-04
 -1.8593E-03 -7.2070E-04  2.4500E-04
 -1.8743E-03 -5.6275E-04  3.0522E-04
 -1.7724E-03 -5.3715E-04  2.4741E-04
 -1.4499E-03 -4.1018E-04  2.9571E-04
 -1.0529E-03 -4.0661E-04  2.4683E-04
 -5.4375E-04 -3.1480E-04  2.9572E-04
 -2.6114E-04 -3.6608E-04  2.3968E-04
  3.6773E-04  1.4516E-04  4.6450E-04
  8.9029E-04  2.2439E-04  4.6389E-04
  1.7079E-03  2.1289E-04  4.6448E-04
  2.4548E-03  3.3988E-04  4.5962E-04
  2.9656E-03  3.7735E-04  4.5476E-04
  3.3276E-03  5.6236E-04  4.3779E-04
  3.2989E-03  6.4817E-04  4.2566E-04
  3.0710E-03  8.6729E-04  3.9812E-04
  2.3940E-03  9.6729E-04  3.9175E-04
  1.5267E-03  1.1435E-03  3.6483E-04
  3.8689E-04  1.1607E-03  3.7721E-04
 -7.9554E-04  1.2072E-03  3.7178E-04
 -1.8378E-03  1.0737E-03  4.1592E-04
 -2.7157E-03  9.8968E-04  4.3650E-04
 -3.1294E-03  7.5455E-04  4.8369E-04
 -3.3038E-03  6.5182E-04  4.9582E-04
 -3.0138E-03  4.4506E-04  5.2246E-04
 -2.5478E-03  3.8038E-04  5.2673E-04
 -1.7853E-03  2.3223E-04  5.3220E-04
 -9.3773E-04  2.4343E-04  5.3615E-04
 -3.9675E-04  1.6450E-04  5.3706E-04
  4.4454E-04  4.4152E-04  4.6269E-04
  9.0964E-04  4.5966E-04  4.5966E-04
  1.7860E-03  5.5490E-04  4.6055E-04
  2.5061E-03  6.8217E-04  4.5962E-04
  3.1213E-03  8.9227E-04  4.4326E-04
  3.4104E-03  1.1320E-03  4.3053E-04
  3.5153E-03  1.4408E-03  3.9905E-04
  3.1680E-03  1.7509E-03  3.8209E-04
  2.5932E-03  2.0687E-03  3.4066E-04
  1.5862E-03  2.3261E-03  3.3369E-04
  4.3614E-04  2.4718E-03  2.9650E-04
 -8.1728E-04  2.4760E-03  3.3368E-04
 -2.0016E-03  2.3011E-03  3.4185E-04
 -2.8100E-03  2.0119E-03  4.1110E-04
 -3.3743E-03  1.6705E-03  4.3531E-04
 -3.4005E-03  1.3109E-03  4.8372E-04
 -3.2055E-03  1.0168E-03  5.0159E-04
 -2.6124E-03  7.5954E-04  5.2249E-04
 -1.8793E-03  6.0386E-04  5.3038E-04
 -9.5798E-04  4.8867E-04  5.3705E-04
 -4.7597E-04  4.6750E-04  5.3706E-04
  4.2579E-04  8.1287E-04  4.6449E-04
  1.0028E-03  8.8906E-04  4.6268E-04
  1.9305E-03  1.0305E-03  4.5963E-04
  2.7903E-03  1.3268E-03  4.4328E-04
  3.4154E-03  1.6932E-03  4.2571E-04
  3.8825E-03  2.2221E-03  3.8456E-04
  3.9178E-03  2.7957E-03  3.4825E-04
  3.7189E-03  3.4710E-03  2.7567E-04
  2.9693E-03  4.0961E-03  2.3213E-04
  1.9606E-03  4.6516E-03  1.3419E-04
  5.3674E-04  4.9854E-03  1.1122E-04
 -9.7618E-04  4.9782E-03  7.4951E-05
 -2.3018E-03  4.6181E-03  1.7892E-04
 -3.3825E-03  4.0136E-03  2.2850E-04
 -3.8305E-03  3.2598E-03  3.4339E-04
 -3.9757E-03  2.5699E-03  4.0086E-04
 -3.5651E-03  1.9108E-03  4.6922E-04
 -2.9580E-03  1.4655E-03  4.9950E-04
 -2.0562E-03  1.1031E-03  5.2734E-04
 -1.0714E-03  9.3408E-04  5.3220E-04
 -4.6447E-04  8.4670E-04  5.3705E-04
  5.5641E-04  1.1213E-03  4.6448E-04
  1.1273E-03  1.1709E-03  4.6448E-04
  2.2174E-03  1.4309E-03  4.4904E-04
  3.1688E-03  1.7948E-03  4.2573E-04
  4.0157E-03  2.4024E-03  3.8155E-04
  4.5128E-03  3.1053E-03  3.2407E-04
  4.7914E-03  4.0605E-03  2.2066E-04
  4.4683E-03  5.0341E-03  1.2090E-04
  3.8299E-03  6.0856E-03 -4.4123E-05
  2.4755E-03  6.9479E-03 -1.7406E-04
  8.0077E-04  7.5251E-03 -3.8044E-04
 -1.1845E-03  7.5230E-03 -3.7228E-04
 -3.0377E-03  6.9378E-03 -3.1247E-04
 -4.1682E-03  5.8800E-03 -6.2862E-05
 -4.8787E-03  4.7529E-03  7.4354E-05
 -4.7495E-03  3.5501E-03  2.8052E-04
 -4.3117E-03  2.6855E-03  3.8425E-04
 -3.4201E-03  1.9350E-03  4.7408E-04
 -2.3999E-03  1.5079E-03  5.0737E-04
 -1.2144E-03  1.1998E-03  5.2735E-04
 -5.9963E-04  1.1463E-03  5.3250E-04
  5.9026E-04  1.2192E-03  4.6447E-04
  1.3060E-03  1.3465E-03  4.6084E-04
  2.5544E-03  1.5917E-03  4.4509E-04
  3.7519E-03  2.1331E-03  4.0092E-04
  4.7259E-03  2.8104E-03  3.4343E-04
  5.5487E-03  3.8438E-03  2.1583E-04
  5.8466E-03  4.9906E-03  6.7702E-05
  5.8020E-03  6.4562E-03 -1.7195E-04
  4.8829E-03  7.8417E-03 -4.0127E-04
  3.5014E-03  9.1782E-03 -8.1123E-04
  1.1118E-03  9.9819E-03 -1.1553E-03
 -1.6233E-03  1.0055E-02 -1.4308E-03
 -3.9447E-03  8.9626E-03 -1.0877E-03
 -5.6905E-03  7.5996E-03 -8.6119E-04
 -6.1603E-03  5.6913E-03 -3.1914E-04
 -6.0576E-03  4.3014E-03  1.2090E-05
 -5.1802E-03  3.0181E-03  2.9021E-04
 -4.1084E-03  2.2385E-03  4.1208E-04
 -2.7913E-03  1.6206E-03  4.9344E-04
 -1.4211E-03  1.3480E-03  5.1887E-04
 -6.3862E-04  1.2047E-03  5.3218E-04
  7.3811E-04  1.2026E-03  4.6657E-04
  1.4998E-03  1.2627E-03  4.6445E-04
  2.9849E-03  1.6234E-03  4.3086E-04
  4.3875E-03  2.1284E-03  3.8215E-04
  5.7065E-03  3.0308E-03  2.6391E-04
  6.6931E-03  4.1107E-03  1.0639E-04
  7.4354E-03  5.6920E-03 -1.8283E-04
  7.3193E-03  7.3822E-03 -5.1728E-04
  6.6704E-03  9.4084E-03 -1.0468E-03
  4.6155E-03  1.1092E-02 -1.6094E-03
  1.7141E-03  1.2286E-02 -2.6622E-03
 -2.2037E-03  1.1830E-02 -3.2040E-03
 -5.7242E-03  1.0468E-02 -2.7343E-03
 -7.4393E-03  7.9517E-03 -2.1366E-03
 -8.1976E-03  6.0555E-03 -9.8901E-04
 -7.4227E-03  4.2264E-03 -2.5145E-04
 -6.3140E-03  3.0615E-03  1.3723E-04
 -4.8177E-03  2.0944E-03  3.7245E-04
 -3.2559E-03  1.5698E-03  4.6712E-04
 -1.6303E-03  1.1998E-03  5.1764E-04
 -8.0127E-04  1.1345E-03  5.2551E-04
  7.7408E-04  9.1922E-04  4.6928E-04
  1.7096E-03  1.0528E-03  4.5718E-04
  3.4202E-03  1.3207E-03  4.2571E-04
  5.1186E-03  1.9358E-03  3.4041E-04
  6.7081E-03  2.7326E-03  2.0797E-04
  8.1809E-03  4.0797E-03 -6.9512E-05
  9.1181E-03  5.6517E-03 -4.2545E-04
  9.6224E-03  7.9675E-03 -1.0616E-03
  8.5922E-03  1.0337E-02 -1.7590E-03
  6.6097E-03  1.2728E-02 -3.1185E-03
  1.8503E-03  1.3875E-02 -4.8263E-03
 -3.7336E-03  1.3031E-02 -5.0178E-03
 -7.8228E-03  1.0195E-02 -4.4937E-03
 -1.0227E-02  7.4361E-03 -2.4724E-03
 -9.8858E-03  5.2015E-03 -1.2327E-03
 -8.9675E-03  3.6935E-03 -4.0857E-04
 -7.3122E-03  2.4664E-03  1.0156E-04
 -5.5394E-03  1.7274E-03  3.3374E-04
 -3.6861E-03  1.1610E-03  4.6922E-04
 -1.8374E-03  9.1009E-04  5.1310E-04
 -8.4177E-04  7.8372E-04  5.3215E-04
  9.2404E-04  5.0677E-04  4.6867E-04
  1.9012E-03  5.6118E-04  4.5959E-04
  3.8270E-03  8.5835E-04  4.1088E-04
  5.7995E-03  1.2915E-03  3.2891E-04
  7.7753E-03  2.1521E-03  1.0821E-04
  9.6123E-03  3.2396E-03 -2.0791E-04
  1.1280E-02  5.1479E-03 -8.3628E-04
  1.2004E-02  7.3408E-03 -1.6189E-03
  1.1835E-02  1.0857E-02 -3.1977E-03
  8.1532E-03  1.4007E-02 -4.6417E-03
  2.0809E-03  1.5341E-02 -6.7103E-03
 -5.8826E-03  1.3470E-02 -7.3122E-03
 -1.1763E-02  9.5387E-03 -4.3692E-03
 -1.2433E-02  6.3060E-03 -2.0102E-03
 -1.1892E-02  4.1104E-03 -1.0093E-03
 -1.0158E-02  2.5625E-03 -2.6108E-04
 -8.2204E-03  1.6496E-03  1.2090E-04
 -6.1232E-03  9.7217E-04  3.7242E-04
 -4.0397E-03  6.0949E-04  4.6982E-04
 -2.0076E-03  3.6282E-04  5.2730E-04
 -9.7722E-04  3.1868E-04  5.3517E-04
  9.4822E-04 -1.2578E-04  4.7895E-04
  2.0403E-03 -5.1401E-05  4.5717E-04
  4.1505E-03  9.1911E-05  4.1602E-04
  6.3335E-03  4.4590E-04  2.8477E-04
  8.6564E-03  9.3818E-04  6.7704E-05
  1.1018E-02  1.9494E-03 -4.5508E-04
  1.3220E-02  3.2239E-03 -1.2084E-03
  1.5193E-02  5.7518E-03 -2.7916E-03
  1.5258E-02  8.5639E-03 -5.0523E-03
  1.2410E-02  1.4302E-02 -7.9223E-03
  1.3131E-03  1.8176E-02 -9.8628E-03
 -1.0605E-02  1.4078E-02 -7.0887E-03
 -1.4987E-02  8.4521E-03 -3.9459E-03
 -1.5668E-02  5.0387E-03 -2.1150E-03
 -1.3630E-02  2.4698E-03 -6.4765E-04
 -1.1313E-02  1.2730E-03 -1.5471E-04
 -8.9026E-03  4.8357E-04  2.3212E-04
 -6.5325E-03  9.9755E-05  3.9116E-04
 -4.2954E-03 -1.5963E-04  4.9823E-04
 -2.1155E-03 -2.7090E-04  5.3244E-04
 -9.7721E-04 -3.2413E-04  5.5150E-04
  1.0269E-03 -8.1580E-04  4.7351E-04
  2.1190E-03 -8.1275E-04  4.6443E-04
  4.2808E-03 -7.7429E-04  4.0635E-04
  6.6458E-03 -7.1101E-04  2.9988E-04
  9.1384E-03 -5.4344E-04 -1.5415E-05
  1.1898E-02 -2.7558E-04 -5.5600E-04
  1.4714E-02  4.3771E-04 -1.7750E-03
  1.7345E-02  1.2852E-03 -3.6188E-03
  1.9844E-02  3.6208E-03 -7.0563E-03
  1.7764E-02  6.6855E-03 -1.2985E-02
  2.6126E-03  1.0725E-02 -9.2129E-03
 -1.5604E-02  1.1144E-02 -6.3855E-03
 -2.1040E-02  4.6391E-03 -3.8740E-03
 -1.8416E-02  1.3334E-03 -2.3431E-03
 -1.5225E-02  2.2202E-04 -9.5483E-04
 -1.2144E-02 -5.8498E-04 -3.8677E-05
 -9.2687E-03 -8.2661E-04  2.3756E-04
 -6.7665E-03 -9.5766E-04  4.3530E-04
 -4.3832E-03 -9.9376E-04  5.0278E-04
 -2.1721E-03 -1.0111E-03  5.4665E-04
 -1.0531E-03 -1.0132E-03  5.5060E-04
  9.5793E-04 -1.5240E-03  4.7897E-04
  2.0737E-03 -1.5793E-03  4.6112E-04
  4.2522E-03 -1.6835E-03  4.2571E-04
  6.5209E-03 -1.9224E-03  2.9657E-04
  9.0919E-03 -2.2246E-03  6.7706E-05
  1.1847E-02 -2.7601E-03 -5.8896E-04
  1.4781E-02 -3.3302E-03 -1.7690E-03
  1.7667E-02 -4.3279E-03 -3.8384E-03
  2.0660E-02 -5.4911E-03 -7.1138E-03
  1.9502E-02 -7.3017E-03 -8.2728E-03
  5.7708E-03 -5.3125E-03 -6.8131E-03
 -1.7445E-02 -4.9979E-03 -3.3988E-03
 -2.4801E-02 -4.9738E-03 -3.0084E-03
 -1.8695E-02 -4.2977E-03 -1.8247E-03
 -1.5548E-02 -3.3107E-03 -1.0633E-03
 -1.2120E-02 -2.7464E-03 -2.0034E-04
 -9.2753E-03 -2.3261E-03  2.7081E-04
 -6.6516E-03 -2.0614E-03  4.2201E-04
 -4.3489E-03 -1.8527E-03  5.1761E-04
 -2.1277E-03 -1.7522E-03  5.4304E-04
 -9.8694E-04 -1.7029E-03  5.5636E-04
  9.4588E-04 -2.1839E-03  4.7052E-04
  1.9595E-03 -2.2352E-03  4.6446E-04
  3.9558E-03 -2.5256E-03  4.2936E-04
  6.1046E-03 -2.9411E-03  3.6279E-04
  8.3459E-03 -3.7585E-03  1.4086E-04
  1.0793E-02 -4.7822E-03 -2.1276E-04
  1.3286E-02 -6.7263E-03 -1.2251E-03
  1.5183E-02 -8.8626E-03 -2.7690E-03
  1.6629E-02 -1.3284E-02 -4.0139E-03
  1.7943E-02 -1.7528E-02 -4.8045E-03
  5.3292E-03 -2.0954E-02 -2.8106E-03
 -1.5264E-02 -1.9262E-02  3.2344E-04
 -2.0612E-02 -1.3210E-02 -9.5906E-04
 -1.6753E-02 -8.9007E-03 -9.1326E-04
 -1.3749E-02 -6.6259E-03 -5.8489E-04
 -1.1160E-02 -4.7385E-03 -8.2198E-05
 -8.6089E-03 -3.7774E-03  2.4544E-04
 -6.2931E-03 -3.0425E-03  4.4018E-04
 -4.0785E-03 -2.6595E-03  5.0766E-04
 -2.0223E-03 -2.3900E-03  5.4670E-04
 -9.8063E-04 -2.3408E-03  5.4883E-04
  7.9352E-04 -2.6370E-03  4.6934E-04
  1.7518E-03 -2.7851E-03  4.6177E-04
  3.5464E-03 -3.0771E-03  4.4995E-04
  5.3731E-03 -3.7474E-03  3.8671E-04
  7.2506E-03 -4.6289E-03  2.9505E-04
  9.1286E-03 -6.2094E-03  1.6322E-05
  1.0700E-02 -8.1129E-03 -3.5778E-04
  1.1869E-02 -1.1401E-02 -1.0537E-03
  1.1994E-02 -1.4647E-02 -1.2564E-03
  1.1612E-02 -2.0219E-02 -1.7923E-03
  4.0377E-03 -2.6390E-02 -1.3089E-03
 -9.2072E-03 -2.2719E-02 -7.0850E-04
 -1.4437E-02 -1.5466E-02 -7.4408E-04
 -1.3144E-02 -1.1354E-02 -4.8182E-04
 -1.1386E-02 -8.1125E-03 -1.6438E-04
 -9.5486E-03 -6.2455E-03  8.4325E-05
 -7.5792E-03 -4.7159E-03  3.1923E-04
 -5.6034E-03 -3.8619E-03  4.4203E-04
 -3.6963E-03 -3.2125E-03  5.1283E-04
 -1.8235E-03 -2.9314E-03  5.3464E-04
 -8.3221E-04 -2.7869E-03  5.4191E-04
  7.4004E-04 -2.9617E-03  4.5878E-04
  1.5194E-03 -3.0339E-03  4.5968E-04
  3.0452E-03 -3.4505E-03  4.4635E-04
  4.5526E-03 -4.0446E-03  4.2575E-04
  6.0305E-03 -5.1247E-03  3.5435E-04
  7.3083E-03 -6.4570E-03  2.6602E-04
  8.3772E-03 -8.5537E-03  4.7150E-05
  8.6496E-03 -1.0888E-02 -8.2193E-05
  8.4038E-03 -1.4054E-02 -3.5922E-04
  6.2008E-03 -1.7336E-02 -3.3831E-04
  2.0716E-03 -2.0526E-02 -6.2944E-04
 -4.3446E-03 -2.0466E-02 -8.8438E-04
 -9.0160E-03 -1.5442E-02 -6.3319E-04
 -9.3984E-03 -1.1327E-02 -2.7073E-04
 -8.9982E-03 -8.7945E-03  2.1156E-05
 -7.7627E-03 -6.6454E-03  2.6117E-04
 -6.3684E-03 -5.3002E-03  3.8427E-04
 -4.7896E-03 -4.2042E-03  4.7896E-04
 -3.1961E-03 -3.6031E-03  5.0924E-04
 -1.5968E-03 -3.1839E-03  5.2742E-04
 -7.7511E-04 -3.1086E-03  5.2954E-04
  5.7102E-04 -2.9858E-03  4.4521E-04
  1.2839E-03 -3.1388E-03  4.4611E-04
  2.5356E-03 -3.4453E-03  4.4518E-04
  3.7641E-03 -4.1140E-03  4.2912E-04
  4.8381E-03 -4.9687E-03  4.0640E-04
  5.7920E-03 -6.2981E-03  3.4648E-04
  6.2685E-03 -7.8356E-03  2.9021E-04
  6.4169E-03 -9.8396E-03  1.6443E-04
  5.5462E-03 -1.1924E-02  9.6707E-05
  4.0340E-03 -1.4009E-02 -4.8046E-05
  9.0889E-04 -1.5654E-02 -1.7404E-04
 -2.7041E-03 -1.5014E-02 -3.7136E-04
 -5.2993E-03 -1.2997E-02 -3.8197E-04
 -6.8200E-03 -1.0548E-02 -7.1933E-05
 -6.7035E-03 -8.2512E-03  2.0314E-04
 -6.1812E-03 -6.6144E-03  3.4496E-04
 -5.1379E-03 -5.2008E-03  4.5477E-04
 -3.9751E-03 -4.3090E-03  4.8808E-04
 -2.6759E-03 -3.6098E-03  5.1292E-04
 -1.3498E-03 -3.2887E-03  5.1506E-04
 -6.0005E-04 -3.1261E-03  5.1779E-04
  5.1965E-04 -2.8704E-03  4.3253E-04
  1.0598E-03 -2.9376E-03  4.3555E-04
  2.0945E-03 -3.2850E-03  4.3372E-04
  3.0292E-03 -3.7793E-03  4.3067E-04
  3.8818E-03 -4.5964E-03  4.1642E-04
  4.4414E-03 -5.5687E-03  4.0157E-04
  4.8041E-03 -6.8676E-03  3.5284E-04
  4.5614E-03 -8.2617E-03  3.1441E-04
  3.9609E-03 -9.7424E-03  2.3699E-04
  2.4713E-03 -1.1089E-02  1.7894E-04
  5.6461E-04 -1.1748E-02  7.9190E-05
 -1.6878E-03 -1.1708E-02  1.4508E-05
 -3.6971E-03 -1.0515E-02  3.5064E-05
 -4.6531E-03 -8.8999E-03  1.8864E-04
 -5.0875E-03 -7.3526E-03  3.1867E-04
 -4.7122E-03 -5.9072E-03  4.3058E-04
 -4.1127E-03 -4.8542E-03  4.6994E-04
 -3.1985E-03 -3.9728E-03  4.9841E-04
 -2.2058E-03 -3.4486E-03  4.9935E-04
 -1.1131E-03 -3.0779E-03  4.9846E-04
 -5.4233E-04 -3.0087E-03  4.9937E-04
  3.6783E-04 -2.4925E-03  4.1623E-04
  8.7661E-04 -2.6086E-03  4.2106E-04
  1.6939E-03 -2.8360E-03  4.2105E-04
  2.4654E-03 -3.2984E-03  4.2103E-04
  3.0486E-03 -3.8761E-03  4.2100E-04
  3.5017E-03 -4.6887E-03  4.0857E-04
  3.5755E-03 -5.5931E-03  3.9190E-04