# vtk DataFile Version 3.0
model R-SWMS
ASCII
DATASET RECTILINEAR_GRID
DIMENSIONS      21    21    21
X_COORDINATES      21 float
 -5.0000E+00 -4.5000E+00 -4.0000E+00 -3.5000E+00 -3.0000E+00 -2.5000E+00 -2.0000E+00 -1.5000E+00 -1.0000E+00 -5.0000E-01  0.0000E+00  5.0000E-01  1.0000E+00  1.5000E+00  2.0000E+00  2.5000E+00  3.0000E+00  3.5000E+00  4.0000E+00  4.5000E+00  5.0000E+00
Y_COORDINATES      21 float
-5.0000E+00-4.5000E+00-4.0000E+00-3.5000E+00-3.0000E+00-2.5000E+00-2.0000E+00-1.5000E+00-1.0000E+00-5.0000E-01 0.0000E+00 5.0000E-01 1.0000E+00 1.5000E+00 2.0000E+00 2.5000E+00 3.0000E+00 3.5000E+00 4.0000E+00 4.5000E+00 5.0000E+00
Z_COORDINATES      21 float
 0.0000E+00-5.0000E-01-1.0000E+00-1.5000E+00-2.0000E+00-2.5000E+00-3.0000E+00-3.5000E+00-4.0000E+00-4.5000E+00-5.0000E+00-5.5000E+00-6.0000E+00-6.5000E+00-7.0000E+00-7.5000E+00-8.0000E+00-8.5000E+00-9.0000E+00-9.5000E+00-1.0000E+01
     POINT_DATA    9261
SCALARS velocity float 3
LOOKUP_TABLE default
  4.3024E-04  2.0267E-04  2.4771E-04
  8.7232E-04  1.5171E-04  3.0342E-04
  1.7043E-03  2.5955E-04  2.4770E-04
  2.3845E-03  2.6547E-04  3.0339E-04
  2.9579E-03  4.2543E-04  2.4294E-04
  3.2184E-03  4.8346E-04  2.9387E-04
  3.2993E-03  6.8663E-04  2.2098E-04
  2.9525E-03  7.8669E-04  2.6539E-04
  2.4049E-03  9.8449E-04  1.9548E-04
  1.4642E-03  1.0425E-03  2.5588E-04
  3.9329E-04  1.1645E-03  1.7651E-04
 -7.5816E-04  1.1088E-03  2.4640E-04
 -1.8404E-03  1.0869E-03  1.9014E-04
 -2.5922E-03  9.0039E-04  2.7486E-04
 -3.1338E-03  7.9619E-04  2.3696E-04
 -3.1850E-03  5.7823E-04  3.1281E-04
 -3.0158E-03  4.8821E-04  2.6544E-04
 -2.4649E-03  3.1286E-04  3.3182E-04
 -1.7836E-03  2.8799E-04  2.8087E-04
 -9.1494E-04  1.8014E-04  3.3185E-04
 -4.5629E-04  2.2400E-04  2.8326E-04
  3.7927E-04  4.3142E-04  3.0342E-04
  9.0758E-04  4.6371E-04  2.4504E-04
  1.7398E-03  5.3096E-04  2.9392E-04
  2.4991E-03  6.7996E-04  2.4324E-04
  3.0242E-03  8.5797E-04  2.9389E-04
  3.4023E-03  1.1147E-03  2.2425E-04
  3.3887E-03  1.3839E-03  2.6541E-04
  3.1663E-03  1.7037E-03  1.9134E-04
  2.4831E-03  1.9903E-03  2.3693E-04
  1.5969E-03  2.2324E-03  1.5696E-04
  4.1224E-04  2.3692E-03  2.0849E-04
 -8.1559E-04  2.3627E-03  1.4156E-04
 -1.9001E-03  2.2082E-03  2.2745E-04
 -2.8092E-03  1.9385E-03  1.8866E-04
 -3.2274E-03  1.5971E-03  2.8435E-04
 -3.4053E-03  1.2814E-03  2.4468E-04
 -3.0951E-03  9.7168E-04  3.1283E-04
 -2.6045E-03  7.5755E-04  2.7523E-04
 -1.8251E-03  5.7834E-04  3.3183E-04
 -9.5761E-04  4.9599E-04  2.8207E-04
 -4.0770E-04  4.5510E-04  3.4133E-04
  4.8060E-04  8.2431E-04  2.4712E-04
  9.7186E-04  8.5808E-04  2.9393E-04
  1.9188E-03  1.0311E-03  2.4177E-04
  2.7115E-03  1.2752E-03  2.9390E-04
  3.3935E-03  1.6753E-03  2.2426E-04
  3.7443E-03  2.1328E-03  2.5594E-04
  3.9006E-03  2.7348E-03  1.7446E-04
  3.5588E-03  3.3313E-03  2.0850E-04
  2.9585E-03  3.9601E-03  1.0365E-04
  1.8431E-03  4.4491E-03  1.3267E-04
  5.3509E-04  4.7489E-03  2.3986E-05
 -9.1917E-04  4.7285E-03  1.0424E-04
 -2.2921E-03  4.4035E-03  5.3304E-05
 -3.2032E-03  3.8097E-03  1.7059E-04
 -3.8157E-03  3.1534E-03  1.5549E-04
 -3.8104E-03  2.4407E-03  2.6540E-04
 -3.5441E-03  1.8888E-03  2.3936E-04
 -2.8583E-03  1.3983E-03  3.2233E-04
 -2.0425E-03  1.1075E-03  2.7435E-04
 -1.0382E-03  8.9596E-04  3.3184E-04
 -5.1673E-04  8.5923E-04  2.8444E-04
  4.9303E-04  1.0714E-03  2.9392E-04
  1.1117E-03  1.1757E-03  2.4296E-04
  2.1569E-03  1.3747E-03  2.9391E-04
  3.1398E-03  1.7882E-03  2.2931E-04
  3.8819E-03  2.3035E-03  2.6543E-04
  4.4715E-03  3.0634E-03  1.6588E-04
  4.5871E-03  3.8858E-03  1.8007E-04
  4.4306E-03  4.8890E-03  5.1233E-05
  3.6007E-03  5.8038E-03  3.7903E-05
  2.4345E-03  6.6384E-03 -1.2554E-04
  6.9164E-04  7.0822E-03 -1.3264E-04
 -1.1858E-03  7.0844E-03 -2.4190E-04
 -2.8188E-03  6.4715E-03 -9.4751E-05
 -4.1259E-03  5.6023E-03 -8.6764E-05
 -4.5963E-03  4.4399E-03  9.4769E-05
 -4.6913E-03  3.4740E-03  1.3003E-04
 -4.1376E-03  2.5404E-03  2.5593E-04
 -3.3769E-03  1.9324E-03  2.4322E-04
 -2.3274E-03  1.4363E-03  3.2233E-04
 -1.1987E-03  1.2124E-03  2.7791E-04
 -5.3093E-04  1.0951E-03  3.3183E-04
  6.2635E-04  1.2343E-03  2.4355E-04
  1.2752E-03  1.2894E-03  2.9391E-04
  2.5198E-03  1.6073E-03  2.3316E-04
  3.6403E-03  2.0429E-03  2.6544E-04
  4.6634E-03  2.7942E-03  1.7566E-04
  5.3265E-03  3.6679E-03  1.7060E-04
  5.7573E-03  4.8890E-03  2.6357E-05
  5.4767E-03  6.1353E-03 -1.8951E-05
  4.7850E-03  7.5355E-03 -2.4396E-04
  3.1214E-03  8.6254E-03 -3.4104E-04
  1.0086E-03  9.3458E-03 -6.4148E-04
 -1.5299E-03  9.1602E-03 -6.4415E-04
 -3.8832E-03  8.3766E-03 -6.2258E-04
 -5.2346E-03  6.8548E-03 -3.5056E-04
 -5.9999E-03  5.4764E-03 -1.8952E-04
 -5.7099E-03  3.9946E-03  7.5817E-05
 -5.0697E-03  2.9922E-03  1.3447E-04
 -3.9624E-03  2.1186E-03  2.6542E-04
 -2.7421E-03  1.6359E-03  2.5063E-04
 -1.3794E-03  1.2846E-03  3.3182E-04
 -6.7906E-04  1.2254E-03  2.7850E-04
  6.6366E-04  1.1519E-03  3.0339E-04
  1.4748E-03  1.2888E-03  2.4057E-04
  2.9104E-03  1.5500E-03  2.8441E-04
  4.3046E-03  2.1415E-03  1.9403E-04
  5.5069E-03  2.8814E-03  1.8957E-04
  6.5646E-03  4.0609E-03  4.3239E-05
  7.0544E-03  5.3820E-03 -2.8426E-05
  7.1524E-03  7.1560E-03 -2.9043E-04
  6.0907E-03  8.8234E-03 -4.7361E-04
  4.3582E-03  1.0440E-02 -9.2610E-04
  1.2264E-03  1.1175E-02 -1.2312E-03
 -2.2774E-03  1.0926E-02 -1.4493E-03
 -5.1240E-03  9.3625E-03 -1.2502E-03
 -7.1449E-03  7.6025E-03 -8.6144E-04
 -7.4564E-03  5.5947E-03 -4.1688E-04
 -7.1516E-03  4.1642E-03 -1.3267E-04
 -6.0136E-03  2.8859E-03  1.4216E-04
 -4.6932E-03  2.1049E-03  1.8247E-04
 -3.1615E-03  1.4931E-03  2.9387E-04
 -1.5942E-03  1.2221E-03  2.6634E-04
 -7.2051E-04  1.0808E-03  3.3182E-04
  8.2067E-04  9.4273E-04  2.4353E-04
  1.6733E-03  1.0049E-03  2.9389E-04
  3.3449E-03  1.3470E-03  2.1893E-04
  4.9717E-03  1.8342E-03  2.2750E-04
  6.5429E-03  2.7376E-03  9.3888E-05
  7.8272E-03  3.8283E-03  2.8428E-05
  8.8693E-03  5.5433E-03 -2.5018E-04
  8.9180E-03  7.3930E-03 -4.8308E-04
  8.2565E-03  9.8061E-03 -1.0249E-03
  5.4728E-03  1.1694E-02 -1.4866E-03
  1.5246E-03  1.2713E-02 -2.1838E-03
 -3.3422E-03  1.1859E-02 -2.3291E-03
 -7.4695E-03  9.7492E-03 -1.8003E-03
 -9.0023E-03  7.1839E-03 -1.1365E-03
 -9.4410E-03  5.2147E-03 -5.8053E-04
 -8.4188E-03  3.5532E-03 -1.3265E-04
 -7.0687E-03  2.4925E-03  4.0870E-05
 -5.3553E-03  1.6492E-03  2.2748E-04
 -3.5894E-03  1.1870E-03  2.3432E-04
 -1.7917E-03  8.6742E-04  3.2232E-04
 -8.7692E-04  8.0938E-04  2.7493E-04
  8.6272E-04  4.6928E-04  3.0338E-04
  1.8614E-03  5.8393E-04  2.4027E-04
  3.7397E-03  8.0577E-04  2.8439E-04
  5.6392E-03  1.3205E-03  1.5640E-04
  7.5011E-03  1.9997E-03  1.1373E-04
  9.2985E-03  3.2254E-03 -1.4243E-04
  1.0619E-02  4.6749E-03 -3.6945E-04
  1.1493E-02  7.0765E-03 -9.4616E-04
  1.0391E-02  9.5153E-03 -1.5812E-03
  7.7165E-03  1.2682E-02 -2.6428E-03
  1.3913E-03  1.4036E-02 -3.2086E-03
 -5.6117E-03  1.2568E-02 -2.9336E-03
 -9.7984E-03  9.3630E-03 -2.0544E-03
 -1.1821E-02  6.4172E-03 -1.1657E-03
 -1.1087E-02  4.0683E-03 -4.5467E-04
 -9.8056E-03  2.6582E-03 -1.6344E-04
 -7.9177E-03  1.6063E-03  1.2320E-04
 -5.9481E-03  1.0153E-03  1.7831E-04
 -3.9434E-03  5.8297E-04  3.0333E-04
 -1.9567E-03  3.8897E-04  2.7284E-04
 -9.0061E-04  2.9388E-04  3.4128E-04
  9.7886E-04 -1.0073E-04  2.4412E-04
  2.0098E-03 -7.1102E-05  3.0337E-04
  4.0362E-03  1.1464E-04  2.1299E-04
  6.1657E-03  3.8861E-04  2.0852E-04
  8.3431E-03  9.6308E-04  4.1461E-06
  1.0503E-02  1.7054E-03 -1.7054E-04
  1.2559E-02  3.1486E-03 -7.0893E-04
  1.3759E-02  4.7961E-03 -1.3351E-03
  1.4137E-02  8.0662E-03 -2.6428E-03
  9.9930E-03  1.1323E-02 -4.3625E-03
  2.1744E-03  1.5625E-02 -4.8047E-03
 -8.0145E-03  1.5078E-02 -3.2550E-03
 -1.4599E-02  8.8765E-03 -1.9829E-03
 -1.4297E-02  4.5685E-03 -1.0321E-03
 -1.3055E-02  2.6100E-03 -4.9962E-04
 -1.0881E-02  1.2174E-03 -2.8422E-05
 -8.6264E-03  5.5140E-04  8.4695E-05
 -6.3787E-03  9.0041E-05  2.5591E-04
 -4.1856E-03 -1.3093E-04  2.5179E-04
 -2.0808E-03 -2.7966E-04  3.4127E-04
 -1.0114E-03 -3.0633E-04  2.8500E-04
  9.5753E-04 -8.0111E-04  3.0338E-04
  2.0599E-03 -7.9190E-04  2.3849E-04
  4.1995E-03 -7.6785E-04  2.7491E-04
  6.4157E-03 -6.8896E-04  1.3151E-04
  8.8181E-03 -5.6860E-04  5.6860E-05
  1.1300E-02 -2.4871E-04 -3.4286E-04
  1.3710E-02  1.7996E-04 -8.2404E-04
  1.5962E-02  1.2478E-03 -1.9034E-03
  1.6918E-02  2.5602E-03 -3.4262E-03
  1.6281E-02  7.0060E-03 -5.5118E-03
  5.1450E-03  1.3685E-02 -7.3770E-03
 -1.3799E-02  1.0051E-02 -3.0853E-03
 -2.0308E-02  3.9178E-03 -2.1860E-03
 -1.7219E-02  1.5323E-03 -1.3163E-03
 -1.4439E-02 -1.4207E-05 -4.2620E-04
 -1.1639E-02 -5.1634E-04 -1.2316E-04
 -9.0452E-03 -8.2918E-04  1.8005E-04
 -6.5701E-03 -9.2826E-04  2.0615E-04
 -4.3131E-03 -9.8111E-04  3.2230E-04
 -2.1197E-03 -9.8977E-04  2.7818E-04
 -9.8594E-04 -9.9542E-04  3.4129E-04
  9.9074E-04 -1.5122E-03  2.4650E-04
  2.0431E-03 -1.5359E-03  3.0338E-04
  4.1223E-03 -1.6682E-03  2.1182E-04
  6.3650E-03 -1.8531E-03  2.0853E-04
  8.7168E-03 -2.1925E-03 -1.3327E-05
  1.1251E-02 -2.5771E-03 -2.2740E-04
  1.3808E-02 -3.2226E-03 -9.1849E-04
  1.6139E-02 -3.8585E-03 -1.8085E-03
  1.8356E-02 -4.8764E-03 -3.4106E-03
  2.1120E-02 -5.0897E-03 -5.6573E-03
  6.2429E-03 -4.1751E-03 -2.8998E-03
 -1.7780E-02 -2.0239E-03 -4.1519E-03
 -2.2842E-02 -3.8806E-03 -1.9778E-03
 -1.8230E-02 -3.7303E-03 -1.2119E-03
 -1.4643E-02 -3.2150E-03 -5.5822E-04
 -1.1696E-02 -2.6718E-03 -2.8423E-05
 -8.9451E-03 -2.3108E-03  9.9801E-05
 -6.5306E-03 -2.0142E-03  2.8435E-04
 -4.2285E-03 -1.8390E-03  2.5773E-04
 -2.0951E-03 -1.7112E-03  3.4129E-04
 -1.0192E-03 -1.6875E-03  2.8442E-04
  8.8175E-04 -2.1238E-03  3.0340E-04
  1.9101E-03 -2.2319E-03  2.4206E-04
  3.8822E-03 -2.4412E-03  2.8441E-04
  5.9163E-03 -2.9273E-03  1.6470E-04
  8.0940E-03 -3.5494E-03  1.3269E-04
  1.0323E-02 -4.7023E-03 -1.8892E-04
  1.2429E-02 -6.0201E-03 -5.3997E-04
  1.4317E-02 -8.4592E-03 -1.2743E-03
  1.5686E-02 -1.0863E-02 -1.9691E-03
  1.6896E-02 -1.6088E-02 -3.0001E-03
  8.2106E-03 -2.0612E-02 -3.9445E-03
 -1.3883E-02 -1.7487E-02 -2.2200E-04
 -2.2016E-02 -1.1514E-02 -1.1358E-04
 -1.6147E-02 -8.6463E-03 -5.4715E-04
 -1.3380E-02 -6.0624E-03 -2.2734E-04
 -1.0754E-02 -4.7213E-03 -5.2410E-05
 -8.3875E-03 -3.6346E-03  1.8955E-04
 -6.1098E-03 -3.0380E-03  2.1328E-04
 -4.0101E-03 -2.5833E-03  3.2232E-04
 -1.9717E-03 -2.3865E-03  2.7702E-04
 -9.1017E-04 -2.2849E-03  3.4132E-04
  8.4032E-04 -2.6419E-03  2.4534E-04
  1.7256E-03 -2.7070E-03  2.9393E-04
  3.4668E-03 -3.0763E-03  2.2606E-04
  5.2567E-03 -3.6024E-03  2.5596E-04
  7.0607E-03 -4.6010E-03  1.2470E-04
  8.7803E-03 -5.8235E-03  5.6861E-05
  1.0361E-02 -7.9268E-03 -2.5167E-04
  1.1296E-02 -1.0206E-02 -4.7361E-04
  1.1785E-02 -1.4066E-02 -8.4369E-04
  1.1370E-02 -1.7921E-02 -7.9523E-04
  4.2963E-03 -2.3732E-02 -8.9440E-04
 -8.6844E-03 -2.4553E-02 -9.9386E-04
 -1.4442E-02 -1.6156E-02 -2.7784E-04
 -1.2777E-02 -1.0670E-02 -1.7049E-04
 -1.1107E-02 -8.0711E-03 -1.0274E-04
 -9.2680E-03 -5.9228E-03  1.0424E-04
 -7.3798E-03 -4.7045E-03  1.5610E-04
 -5.4793E-03 -3.7303E-03  2.8439E-04
 -3.6089E-03 -3.2137E-03  2.6161E-04
 -1.7967E-03 -2.8539E-03  3.3185E-04
 -8.7349E-04 -2.7900E-03  2.7852E-04
  6.7325E-04 -2.8826E-03  3.0344E-04
  1.4970E-03 -3.0379E-03  2.4002E-04
  2.9867E-03 -3.3470E-03  2.8445E-04
  4.4714E-03 -4.0400E-03  2.1273E-04
  5.8727E-03 -4.9294E-03  2.3699E-04
  7.1777E-03 -6.3981E-03  1.1048E-04
  8.0456E-03 -8.0977E-03  7.5812E-05
  8.5710E-03 -1.0634E-02 -1.1962E-04
  7.9713E-03 -1.3257E-02 -1.4209E-04
  6.6487E-03 -1.6990E-02 -1.8350E-04
  1.5815E-03 -2.0943E-02 -8.5230E-05
 -4.8133E-03 -1.9198E-02 -5.2383E-04
 -8.1317E-03 -1.4809E-02 -3.0310E-04
 -9.3316E-03 -1.1303E-02 -1.0629E-04
 -8.6327E-03 -8.4052E-03  7.5808E-05
 -7.6137E-03 -6.6102E-03  1.2025E-04
 -6.1948E-03 -5.0999E-03  2.5594E-04
 -4.6980E-03 -4.2020E-03  2.4265E-04
 -3.1336E-03 -3.5034E-03  3.2237E-04
 -1.5675E-03 -3.1877E-03  2.7142E-04
 -7.1117E-04 -3.0296E-03  3.3188E-04
  6.1699E-04 -2.9854E-03  2.3885E-04
  1.2612E-03 -3.0582E-03  2.9397E-04
  2.5046E-03 -3.4475E-03  2.3588E-04
  3.6742E-03 -3.9966E-03  2.8445E-04
  4.7843E-03 -4.9502E-03  2.0917E-04
  5.6120E-03 -6.0907E-03  2.3699E-04
  6.2237E-03 -7.7302E-03  1.3270E-04
  6.1363E-03 -9.5101E-03  1.4215E-04
  5.5989E-03 -1.1664E-02  2.3689E-05
  3.6856E-03 -1.3733E-02  3.7898E-05
  9.2756E-04 -1.4979E-02 -1.2287E-04
 -2.5533E-03 -1.4846E-02 -9.4741E-05
 -5.4174E-03 -1.2644E-02 -1.1666E-04
 -6.3729E-03 -1.0168E-02  2.8429E-05
 -6.6340E-03 -8.1664E-03  1.0130E-04
 -5.9625E-03 -6.3796E-03  2.2750E-04
 -5.0674E-03 -5.1800E-03  2.2635E-04
 -3.8827E-03 -4.1814E-03  3.1289E-04
 -2.6355E-03 -3.6104E-03  2.6432E-04
 -1.3228E-03 -3.2052E-03  3.2241E-04
 -6.4958E-04 -3.1294E-03  2.7026E-04
  4.4573E-04 -2.7977E-03  2.9399E-04
  1.0473E-03 -2.9375E-03  2.3472E-04
  2.0484E-03 -3.2053E-03  2.8450E-04
  3.0025E-03 -3.7676E-03  2.2936E-04
  3.7785E-03 -4.4755E-03  2.7497E-04
  4.4208E-03 -5.5212E-03  2.0829E-04
  4.6262E-03 -6.6976E-03  2.3700E-04
  4.5685E-03 -8.1202E-03  1.5492E-04
  3.7485E-03 -9.5443E-03  1.8008E-04
  2.5070E-03 -1.0772E-02  8.0260E-05
  4.6911E-04 -1.1604E-02  1.1372E-04
 -1.7381E-03 -1.1266E-02 -2.9616E-07
 -3.4546E-03 -1.0226E-02  9.4776E-05
 -4.6599E-03 -8.7138E-03  9.9525E-05
 -4.8441E-03 -7.1287E-03  2.2751E-04
 -4.6779E-03 -5.8511E-03  2.1954E-04
 -3.9965E-03 -4.7171E-03  3.0341E-04
 -3.1692E-03 -3.9587E-03  2.6047E-04
 -2.1574E-03 -3.3570E-03  3.2243E-04
 -1.1016E-03 -3.0777E-03  2.6465E-04
 -4.7418E-04 -2.9352E-03  3.2244E-04
  4.1553E-04 -2.4973E-03  2.3177E-04
  8.5358E-04 -2.5512E-03  2.8453E-04
  1.6870E-03 -2.8327E-03  2.2643E-04
  2.4041E-03 -3.2244E-03  2.7502E-04
  3.0369E-03 -3.8524E-03  2.2522E-04
  3.3899E-03 -4.5893E-03  2.7498E-04
  3.5768E-03 -5.5193E-03  2.0681E-04
  3.2897E-03 -6.4942E-03  2.5597E-04
  2.7391E-03 -7.4589E-03  1.7715E-04
  1.6257E-03 -8.2849E-03  2.1802E-04
  2.9533E-04 -8.6387E-03  1.3241E-04
 -1.1754E-03 -8.5929E-03  1.8958E-04
 -2.5171E-03 -7.9022E-03  1.4427E-04
 -3.2754E-03 -6.9396E-03  2.3701E-04
 -3.7065E-03 -5.8925E-03  2.1510E-04
 -3.5510E-03 -4.8737E-03  2.9394E-04
 -3.1918E-03 -4.0743E-03  2.5218E-04
 -2.5226E-03 -3.3903E-03  3.1295E-04
 -1.7714E-03 -2.9741E-03  2.6110E-04
 -9.0099E-04 -2.6745E-03  3.1298E-04
 -4.3983E-04 -2.6176E-03  2.5726E-04
  2.8454E-04 -1.9871E-03  2.7506E-04
  7.1461E-04 -2.0692E-03  2.2022E-04
  1.3752E-03 -2.2383E-03  2.7505E-04
  1.9854E-03 -2.5752E-03  2.2199E-04
  2.4136E-03 -2.9921E-03  2.8451E-04
  2.7281E-03 -3.5579E-03  2.2344E-04
  2.7214E-03 -4.1770E-03  2.7499E-04
  2.5411E-03 -4.8529E-03  2.1453E-04
  1.9579E-03 -5.4944E-03  2.6548E-04
  1.1931E-03 -5.9603E-03  1.9703E-04
  1.6117E-04 -6.2478E-03  2.5598E-04
 -9.0750E-04 -6.1332E-03  1.9347E-04
 -1.8014E-03 -5.7788E-03  2.7495E-04
 -2.5171E-03 -5.1518E-03  2.2075E-04
 -2.7783E-03 -4.4472E-03  2.9395E-04
 -2.8312E-03 -3.7778E-03  2.4833E-04
 -2.5131E-03 -3.1580E-03  3.0347E-04
 -2.0752E-03 -2.7107E-03  2.5785E-04
 -1.4416E-03 -2.3521E-03  3.0350E-04
 -7.4959E-04 -2.1705E-03  2.5105E-04
 -3.0351E-04 -2.0819E-03  3.0351E-04
  2.9463E-04 -1.4020E-03  2.1520E-04
  6.0230E-04 -1.4275E-03  2.6558E-04
  1.1809E-03 -1.5650E-03  2.1637E-04
  1.6503E-03 -1.7594E-03  2.7505E-04
  2.0418E-03 -2.0584E-03  2.2140E-04
  2.2050E-03 -2.3994E-03  2.7503E-04
  2.2401E-03 -2.8067E-03  2.2434E-04
  1.9724E-03 -3.2194E-03  2.8448E-04
  1.5572E-03 -3.5899E-03  2.2135E-04
  8.7235E-04 -3.8971E-03  2.7498E-04
  9.9264E-05 -4.0117E-03  2.2194E-04
 -7.0641E-04 -3.9967E-03  2.8446E-04
 -1.4523E-03 -3.7487E-03  2.3439E-04
 -1.9439E-03 -3.4043E-03  2.9396E-04
 -2.2756E-03 -2.9786E-03  2.4686E-04
 -2.2618E-03 -2.5463E-03  3.0348E-04
 -2.1105E-03 -2.1775E-03  2.5340E-04
 -1.7167E-03 -1.8590E-03  3.1299E-04
 -1.2313E-03 -1.6474E-03  2.4661E-04
 -6.3076E-04 -1.4986E-03  2.9404E-04
 -3.0886E-04 -1.4684E-03  2.3891E-04
  2.0868E-04 -7.1141E-04  2.6559E-04
  5.5163E-04 -7.4015E-04  2.1490E-04
  1.0434E-03 -7.9201E-04  2.6558E-04
  1.4876E-03 -9.0077E-04  2.1667E-04
  1.7736E-03 -1.0338E-03  2.7505E-04
  1.9620E-03 -1.2128E-03  2.2347E-04
  1.9015E-03 -1.4036E-03  2.8451E-04
  1.7206E-03 -1.5991E-03  2.2701E-04
  1.2802E-03 -1.7828E-03  2.8449E-04
  7.3757E-04 -1.9075E-03  2.2966E-04
  6.1637E-05 -1.9866E-03  2.9396E-04
 -6.2497E-04 -1.9484E-03  2.3855E-04
 -1.2091E-03 -1.8586E-03  3.0345E-04
 -1.6999E-03 -1.6845E-03  2.4716E-04
 -1.9204E-03 -1.4889E-03  3.0347E-04
 -2.0053E-03 -1.2857E-03  2.5073E-04
 -1.8258E-03 -1.1002E-03  3.0350E-04
 -1.5407E-03 -9.5382E-04  2.4779E-04
 -1.0813E-03 -8.3469E-04  2.9404E-04
 -5.7060E-04 -7.7750E-04  2.3862E-04
 -2.1816E-04 -7.4460E-04  2.8456E-04
  2.5255E-04 -3.4266E-04  2.1698E-04
  5.2170E-04 -2.9405E-04  2.7508E-04
  1.0185E-03 -3.8771E-04  2.1460E-04
  1.4085E-03 -3.7940E-04  2.6558E-04
  1.7244E-03 -5.0209E-04  2.2111E-04
  1.8352E-03 -5.3112E-04  2.7504E-04
  1.8405E-03 -6.8224E-04  2.2583E-04
  1.5932E-03 -7.2074E-04  2.8450E-04
  1.2310E-03 -8.6237E-04  2.3056E-04
  6.6854E-04 -8.7242E-04  2.9397E-04
  5.3933E-05 -9.5717E-04  2.3529E-04
 -5.7845E-04 -8.9139E-04  3.0345E-04
 -1.1706E-03 -8.9556E-04  2.4478E-04
 -1.5742E-03 -7.6815E-04  3.0347E-04
 -1.8582E-03 -7.2255E-04  2.4717E-04
 -1.8731E-03 -5.6905E-04  3.0349E-04
 -1.7724E-03 -5.3469E-04  2.4779E-04
 -1.4512E-03 -3.9837E-04  3.0352E-04
 -1.0540E-03 -4.0787E-04  2.4187E-04
 -5.4067E-04 -3.2250E-04  2.8456E-04
 -2.6204E-04 -3.6638E-04  2.3595E-04
  3.7526E-04  1.4433E-04  4.6186E-04
  8.9394E-04  2.2161E-04  4.6396E-04
  1.7079E-03  2.1168E-04  4.6665E-04
  2.4552E-03  3.3734E-04  4.6002E-04
  2.9631E-03  3.7520E-04  4.5698E-04
  3.3279E-03  5.6337E-04  4.3710E-04
  3.2994E-03  6.4448E-04  4.2805E-04
  3.0680E-03  8.6897E-04  3.9766E-04
  2.3948E-03  9.6178E-04  3.9433E-04
  1.5295E-03  1.1418E-03  3.6576E-04
  3.8949E-04  1.1637E-03  3.7988E-04
 -7.9582E-04  1.2112E-03  3.6966E-04
 -1.8369E-03  1.0772E-03  4.1836E-04
 -2.7138E-03  9.8915E-04  4.3371E-04
 -3.1309E-03  7.5987E-04  4.8093E-04
 -3.3067E-03  6.5352E-04  4.9480E-04
 -3.0159E-03  4.3291E-04  5.1949E-04
 -2.5480E-03  3.7972E-04  5.2644E-04
 -1.7847E-03  2.3091E-04  5.3398E-04
 -9.4111E-04  2.4234E-04  5.3400E-04
 -4.0411E-04  1.6357E-04  5.3400E-04
  4.4953E-04  4.4472E-04  4.6276E-04
  9.1408E-04  4.6185E-04  4.6185E-04
  1.7863E-03  5.5445E-04  4.6094E-04
  2.5063E-03  6.8310E-04  4.5700E-04
  3.1219E-03  8.9381E-04  4.4284E-04
  3.4102E-03  1.1351E-03  4.2808E-04
  3.5145E-03  1.4401E-03  3.9889E-04
  3.1644E-03  1.7505E-03  3.7992E-04
  2.5916E-03  2.0675E-03  3.3962E-04
  1.5916E-03  2.3225E-03  3.3179E-04
  4.3877E-04  2.4712E-03  2.9482E-04
 -8.1744E-04  2.4715E-03  3.2697E-04
 -2.0019E-03  2.3015E-03  3.4111E-04
 -2.8084E-03  2.0101E-03  4.0876E-04
 -3.3731E-03  1.6700E-03  4.3584E-04
 -3.4052E-03  1.3082E-03  4.8577E-04
 -3.2077E-03  1.0164E-03  5.0054E-04
 -2.6120E-03  7.6003E-04  5.2433E-04
 -1.8791E-03  6.0433E-04  5.3037E-04
 -9.6215E-04  4.9070E-04  5.3399E-04
 -4.8138E-04  4.7056E-04  5.3610E-04
  4.3299E-04  8.1786E-04  4.6666E-04
  1.0010E-03  8.8881E-04  4.6275E-04
  1.9291E-03  1.0247E-03  4.5702E-04
  2.7928E-03  1.3241E-03  4.4286E-04
  3.4152E-03  1.6883E-03  4.2329E-04
  3.8814E-03  2.2203E-03  3.8237E-04
  3.9147E-03  2.7942E-03  3.4627E-04
  3.7178E-03  3.4714E-03  2.7531E-04
  2.9668E-03  4.1016E-03  2.3080E-04
  1.9638E-03  4.6552E-03  1.3343E-04
  5.3850E-04  4.9859E-03  1.1058E-04
 -9.7633E-04  4.9766E-03  7.2722E-05
 -2.2983E-03  4.6159E-03  1.7790E-04
 -3.3822E-03  4.0130E-03  2.2811E-04
 -3.8327E-03  3.2557E-03  3.4624E-04
 -3.9783E-03  2.5676E-03  4.0129E-04
 -3.5641E-03  1.9095E-03  4.6655E-04
 -2.9583E-03  1.4650E-03  4.9996E-04
 -2.0541E-03  1.1016E-03  5.2434E-04
 -1.0713E-03  9.3538E-04  5.3218E-04
 -4.7145E-04  8.5150E-04  5.3880E-04
  5.5445E-04  1.1173E-03  4.6545E-04
  1.1209E-03  1.1642E-03  4.6665E-04
  2.2171E-03  1.4287E-03  4.5039E-04
  3.1700E-03  1.7894E-03  4.2812E-04
  4.0181E-03  2.3992E-03  3.8148E-04
  4.5160E-03  3.1069E-03  3.2223E-04
  4.7899E-03  4.0614E-03  2.2061E-04
  4.4718E-03  5.0343E-03  1.2021E-04
  3.8313E-03  6.0886E-03 -4.5074E-05
  2.4759E-03  6.9516E-03 -1.7307E-04
  7.9982E-04  7.5264E-03 -3.8338E-04
 -1.1874E-03  7.5283E-03 -3.7497E-04
 -3.0366E-03  6.9373E-03 -3.1369E-04
 -4.1685E-03  5.8802E-03 -6.2504E-05
 -4.8788E-03  4.7523E-03  7.4833E-05
 -4.7513E-03  3.5539E-03  2.8373E-04
 -4.3121E-03  2.6886E-03  3.8206E-04
 -3.4199E-03  1.9384E-03  4.7138E-04
 -2.3998E-03  1.5077E-03  5.0539E-04
 -1.2123E-03  1.1978E-03  5.2916E-04
 -5.9982E-04  1.1458E-03  5.3308E-04
  5.7728E-04  1.2171E-03  4.6664E-04
  1.3052E-03  1.3464E-03  4.5972E-04
  2.5543E-03  1.5971E-03  4.4737E-04
  3.7516E-03  2.1354E-03  4.0044E-04
  4.7326E-03  2.8136E-03  3.4148E-04
  5.5517E-03  3.8457E-03  2.1340E-04
  5.8421E-03  4.9959E-03  6.7317E-05
  5.8035E-03  6.4588E-03 -1.7097E-04
  4.8840E-03  7.8451E-03 -3.9899E-04
  3.5007E-03  9.1788E-03 -8.1141E-04
  1.1151E-03  9.9827E-03 -1.1583E-03
 -1.6257E-03  1.0056E-02 -1.4314E-03
 -3.9463E-03  8.9596E-03 -1.0863E-03
 -5.6897E-03  7.5984E-03 -8.6080E-04
 -6.1589E-03  5.6926E-03 -3.2213E-04
 -6.0565E-03  4.3031E-03  1.1420E-05
 -5.1796E-03  3.0202E-03  2.8375E-04
 -4.1103E-03  2.2402E-03  4.0973E-04
 -2.7947E-03  1.6258E-03  4.9064E-04
 -1.4197E-03  1.3490E-03  5.1982E-04
 -6.3498E-04  1.2074E-03  5.3396E-04
  7.3512E-04  1.2060E-03  4.6572E-04
  1.5009E-03  1.2700E-03  4.6181E-04
  2.9863E-03  1.6265E-03  4.3142E-04
  4.3866E-03  2.1356E-03  3.7998E-04
  5.7077E-03  3.0328E-03  2.6240E-04
  6.6983E-03  4.1065E-03  1.0579E-04
  7.4364E-03  5.6933E-03 -1.8059E-04
  7.3209E-03  7.3882E-03 -5.1434E-04
  6.6709E-03  9.4104E-03 -1.0465E-03
  4.6132E-03  1.1096E-02 -1.6098E-03
  1.7136E-03  1.2287E-02 -2.6611E-03
 -2.2103E-03  1.1830E-02 -3.2002E-03
 -5.7261E-03  1.0468E-02 -2.7332E-03
 -7.4354E-03  7.9497E-03 -2.1388E-03
 -8.1957E-03  6.0538E-03 -9.8999E-04
 -7.4237E-03  4.2215E-03 -2.5483E-04
 -6.3147E-03  3.0603E-03  1.3465E-04
 -4.8143E-03  2.0921E-03  3.7514E-04
 -3.2567E-03  1.5705E-03  4.6507E-04
 -1.6307E-03  1.2026E-03  5.1951E-04
 -7.9671E-04  1.1364E-03  5.2854E-04
  7.7929E-04  9.1879E-04  4.7142E-04
  1.7104E-03  1.0568E-03  4.5819E-04
  3.4200E-03  1.3228E-03  4.2810E-04
  5.1192E-03  1.9392E-03  3.3938E-04
  6.7036E-03  2.7363E-03  2.0678E-04
  8.1834E-03  4.0815E-03 -6.9116E-05
  9.1239E-03  5.6531E-03 -4.2302E-04
  9.6223E-03  7.9690E-03 -1.0603E-03
  8.5913E-03  1.0336E-02 -1.7634E-03
  6.6084E-03  1.2728E-02 -3.1209E-03
  1.8494E-03  1.3873E-02 -4.8276E-03
 -3.7361E-03  1.3029E-02 -5.0172E-03
 -7.8263E-03  1.0195E-02 -4.4921E-03
 -1.0225E-02  7.4370E-03 -2.4748E-03
 -9.8871E-03  5.2055E-03 -1.2305E-03
 -8.9663E-03  3.6944E-03 -4.1015E-04
 -7.3090E-03  2.4668E-03  9.6172E-05
 -5.5406E-03  1.7268E-03  3.3184E-04
 -3.6843E-03  1.1592E-03  4.6655E-04
 -1.8357E-03  9.1152E-04  5.1408E-04
 -8.4660E-04  7.8407E-04  5.3394E-04
  9.2960E-04  5.0689E-04  4.6961E-04
  1.9049E-03  5.5799E-04  4.6659E-04
  3.8281E-03  8.6008E-04  4.1335E-04
  5.8001E-03  1.2937E-03  3.2704E-04
  7.7735E-03  2.1552E-03  1.0759E-04
  9.6153E-03  3.2452E-03 -2.0673E-04
  1.1283E-02  5.1513E-03 -8.3453E-04
  1.2003E-02  7.3423E-03 -1.6145E-03
  1.1833E-02  1.0860E-02 -3.1999E-03
  8.1500E-03  1.4004E-02 -4.6441E-03
  2.0783E-03  1.5341E-02 -6.7137E-03
 -5.8875E-03  1.3470E-02 -7.3137E-03
 -1.1763E-02  9.5390E-03 -4.3698E-03
 -1.2425E-02  6.3085E-03 -2.0180E-03
 -1.1890E-02  4.1128E-03 -1.0090E-03
 -1.0163E-02  2.5671E-03 -2.5959E-04
 -8.2211E-03  1.6499E-03  1.2021E-04
 -6.1220E-03  9.7626E-04  3.7030E-04
 -4.0387E-03  6.1174E-04  4.7015E-04
 -2.0058E-03  3.6075E-04  5.2911E-04
 -9.7616E-04  3.1777E-04  5.3724E-04
  9.4283E-04 -1.2026E-04  4.7141E-04
  2.0410E-03 -5.0507E-05  4.5848E-04
  4.1557E-03  9.1388E-05  4.1846E-04
  6.3341E-03  4.4726E-04  2.8525E-04
  8.6552E-03  9.3765E-04  6.7318E-05
  1.1021E-02  1.9509E-03 -4.5670E-04
  1.3221E-02  3.2248E-03 -1.2063E-03
  1.5192E-02  5.7539E-03 -2.7910E-03
  1.5253E-02  8.5631E-03 -5.0524E-03
  1.2407E-02  1.4304E-02 -7.9240E-03
  1.3152E-03  1.8178E-02 -9.8642E-03
 -1.0607E-02  1.4082E-02 -7.0909E-03
 -1.4988E-02  8.4568E-03 -3.9474E-03
 -1.5665E-02  5.0406E-03 -2.1162E-03
 -1.3629E-02  2.4701E-03 -6.4877E-04
 -1.1315E-02  1.2745E-03 -1.5413E-04
 -8.9000E-03  4.8563E-04  2.3560E-04
 -6.5310E-03  1.0219E-04  3.9164E-04
 -4.2999E-03 -1.5872E-04  5.0021E-04
 -2.1161E-03 -2.7117E-04  5.3241E-04
 -9.8127E-04 -3.2709E-04  5.4836E-04
  1.0249E-03 -8.1326E-04  4.7172E-04
  2.1165E-03 -8.0813E-04  4.6660E-04
  4.2835E-03 -7.7380E-04  4.0674E-04
  6.6465E-03 -7.1178E-04  2.9818E-04
  9.1375E-03 -5.4305E-04 -1.7431E-05
  1.1903E-02 -2.7401E-04 -5.5764E-04
  1.4717E-02  4.3973E-04 -1.7754E-03
  1.7342E-02  1.2875E-03 -3.6222E-03
  1.9841E-02  3.6221E-03 -7.0590E-03
  1.7763E-02  6.6906E-03 -1.2988E-02
  2.6109E-03  1.0728E-02 -9.2143E-03
 -1.5606E-02  1.1143E-02 -6.3875E-03
 -2.1041E-02  4.6414E-03 -3.8750E-03
 -1.8412E-02  1.3354E-03 -2.3394E-03
 -1.5222E-02  2.2676E-04 -9.5329E-04
 -1.2147E-02 -5.8165E-04 -3.3649E-05
 -9.2700E-03 -8.2401E-04  2.3891E-04
 -6.7664E-03 -9.6183E-04  4.3763E-04
 -4.3832E-03 -9.9382E-04  5.0292E-04
 -2.1742E-03 -1.0053E-03  5.4354E-04
 -1.0549E-03 -1.0092E-03  5.4867E-04
  9.6210E-04 -1.5201E-03  4.7624E-04
  2.0724E-03 -1.5760E-03  4.6210E-04
  4.2521E-03 -1.6787E-03  4.2809E-04
  6.5207E-03 -1.9220E-03  2.9488E-04
  9.0930E-03 -2.2264E-03  6.7320E-05
  1.1851E-02 -2.7610E-03 -5.9041E-04
  1.4783E-02 -3.3305E-03 -1.7686E-03
  1.7665E-02 -4.3285E-03 -3.8394E-03
  2.0658E-02 -5.4886E-03 -7.1213E-03
  1.9501E-02 -7.3006E-03 -8.2758E-03
  5.7667E-03 -5.3110E-03 -6.8126E-03
 -1.7446E-02 -4.9970E-03 -3.4013E-03
 -2.4799E-02 -4.9694E-03 -3.0105E-03
 -1.8693E-02 -4.2951E-03 -1.8242E-03
 -1.5546E-02 -3.3111E-03 -1.0621E-03
 -1.2123E-02 -2.7452E-03 -1.9920E-04
 -9.2802E-03 -2.3273E-03  2.6927E-04
 -6.6531E-03 -2.0611E-03  4.2172E-04
 -4.3433E-03 -1.8518E-03  5.1466E-04
 -2.1261E-03 -1.7509E-03  5.4116E-04
 -9.9094E-04 -1.6981E-03  5.5319E-04
  9.4681E-04 -2.1832E-03  4.7356E-04
  1.9579E-03 -2.2321E-03  4.7144E-04
  3.9556E-03 -2.5227E-03  4.2872E-04
  6.0987E-03 -2.9387E-03  3.5592E-04
  8.3453E-03 -3.7576E-03  1.3705E-04
  1.0798E-02 -4.7790E-03 -2.1635E-04
  1.3288E-02 -6.7282E-03 -1.2260E-03
  1.5183E-02 -8.8650E-03 -2.7676E-03
  1.6629E-02 -1.3285E-02 -4.0169E-03
  1.7942E-02 -1.7524E-02 -4.8108E-03
  5.3258E-03 -2.0953E-02 -2.8105E-03
 -1.5264E-02 -1.9257E-02  3.2640E-04
 -2.0611E-02 -1.3207E-02 -9.5720E-04
 -1.6753E-02 -8.8980E-03 -9.0806E-04
 -1.3748E-02 -6.6275E-03 -5.8246E-04
 -1.1163E-02 -4.7403E-03 -8.1730E-05
 -8.6119E-03 -3.7788E-03  2.4374E-04
 -6.2909E-03 -3.0397E-03  4.3767E-04
 -4.0775E-03 -2.6579E-03  5.0567E-04
 -2.0204E-03 -2.3908E-03  5.4359E-04
 -9.8017E-04 -2.3428E-03  5.4781E-04
  8.0825E-04 -2.6412E-03  4.7148E-04
  1.7545E-03 -2.7846E-03  4.6185E-04
  3.5454E-03 -3.0740E-03  4.4739E-04
  5.3705E-03 -3.7453E-03  3.8481E-04
  7.2526E-03 -4.6218E-03  2.9337E-04
  9.1295E-03 -6.2066E-03  1.6229E-05
  1.0696E-02 -8.1148E-03 -3.5574E-04
  1.1869E-02 -1.1402E-02 -1.0534E-03
  1.1997E-02 -1.4645E-02 -1.2588E-03
  1.1611E-02 -2.0219E-02 -1.7923E-03
  4.0339E-03 -2.6388E-02 -1.3062E-03
 -9.2064E-03 -2.2718E-02 -7.0657E-04
 -1.4437E-02 -1.5469E-02 -7.4465E-04
 -1.3145E-02 -1.1355E-02 -4.8207E-04
 -1.1388E-02 -8.1144E-03 -1.6344E-04
 -9.5502E-03 -6.2475E-03  8.4746E-05
 -7.5794E-03 -4.7131E-03  3.2222E-04
 -5.6024E-03 -3.8630E-03  4.4252E-04
 -3.6945E-03 -3.2134E-03  5.1472E-04
 -1.8245E-03 -2.9310E-03  5.3340E-04
 -8.3710E-04 -2.7903E-03  5.4363E-04
  7.4425E-04 -2.9599E-03  4.5918E-04
  1.5252E-03 -3.0359E-03  4.5707E-04
  3.0445E-03 -3.4519E-03  4.4472E-04
  4.5508E-03 -4.0457E-03  4.2333E-04
  6.0317E-03 -5.1262E-03  3.5413E-04
  7.3052E-03 -6.4588E-03  2.6932E-04
  8.3746E-03 -8.5549E-03  4.9886E-05
  8.6532E-03 -1.0889E-02 -8.1725E-05
  8.4049E-03 -1.4054E-02 -3.5808E-04
  6.1991E-03 -1.7343E-02 -3.3639E-04
  2.0704E-03 -2.0527E-02 -6.2795E-04
 -4.3486E-03 -2.0470E-02 -8.7934E-04
 -9.0154E-03 -1.5444E-02 -6.3469E-04
 -9.3977E-03 -1.1325E-02 -2.7400E-04
 -8.9998E-03 -8.7946E-03  2.0134E-05
 -7.7618E-03 -6.6461E-03  2.5969E-04
 -6.3706E-03 -5.3028E-03  3.8298E-04
 -4.7912E-03 -4.2091E-03  4.7623E-04
 -3.1923E-03 -3.6055E-03  5.0755E-04
 -1.5973E-03 -3.1850E-03  5.2442E-04
 -7.8063E-04 -3.1093E-03  5.2743E-04
  5.6778E-04 -2.9832E-03  4.4748E-04
  1.2832E-03 -3.1402E-03  4.4658E-04
  2.5356E-03 -3.4498E-03  4.4746E-04
  3.7619E-03 -4.1176E-03  4.2848E-04
  4.8394E-03 -4.9741E-03  4.0890E-04
  5.7927E-03 -6.2998E-03  3.4722E-04
  6.2664E-03 -7.8343E-03  2.9336E-04
  6.4188E-03 -9.8401E-03  1.6650E-04
  5.5434E-03 -1.1928E-02  1.0096E-04
  4.0321E-03 -1.4012E-02 -4.8073E-05
  9.0852E-04 -1.5661E-02 -1.7305E-04
 -2.7049E-03 -1.5016E-02 -3.7225E-04
 -5.2931E-03 -1.2995E-02 -3.8460E-04
 -6.8196E-03 -1.0547E-02 -7.2124E-05
 -6.7086E-03 -8.2523E-03  2.0198E-04
 -6.1836E-03 -6.6152E-03  3.4390E-04
 -5.1423E-03 -5.2049E-03  4.5218E-04
 -3.9744E-03 -4.3103E-03  4.8440E-04
 -2.6703E-03 -3.6133E-03  5.0519E-04
 -1.3499E-03 -3.2911E-03  5.1213E-04
 -6.0626E-04 -3.1275E-03  5.1484E-04
  5.1669E-04 -2.8716E-03  4.3428E-04
  1.0586E-03 -2.9401E-03  4.3307E-04
  2.0940E-03 -3.2846E-03  4.3216E-04
  3.0264E-03 -3.7770E-03  4.2822E-04
  3.8828E-03 -4.5952E-03  4.1586E-04
  4.4450E-03 -5.5707E-03  3.9928E-04
  4.8029E-03 -6.8679E-03  3.5264E-04
  4.5594E-03 -8.2628E-03  3.1262E-04
  3.9603E-03 -9.7450E-03  2.3745E-04
  2.4669E-03 -1.1089E-02  1.7792E-04
  5.6530E-04 -1.1750E-02  7.7838E-05
 -1.6830E-03 -1.1704E-02  9.6171E-06
 -3.6971E-03 -1.0517E-02  3.3963E-05
 -4.6555E-03 -8.9069E-03  1.8757E-04
 -5.0886E-03 -7.3550E-03  3.1896E-04
 -4.7143E-03 -5.9073E-03  4.3294E-04
 -4.1152E-03 -4.8516E-03  4.6817E-04
 -3.1996E-03 -3.9694E-03  4.9557E-04
 -2.2038E-03 -3.4473E-03  4.9771E-04
 -1.1115E-03 -3.0796E-03  5.0044E-04
 -5.4405E-04 -3.0078E-03  4.9954E-04
  3.6573E-04 -2.4976E-03  4.1867E-04
  8.7553E-04 -2.6109E-03  4.1867E-04
  1.6987E-03 -2.8391E-03  4.1865E-04
  2.4640E-03 -3.2985E-03  4.2074E-04
  3.0457E-03 -3.8781E-03  4.2342E-04
  3.5028E-03 -4.6909E-03  4.0925E-04
  3.5744E-03 -5.5949E-03  3.9448E-04