# vtk DataFile Version 3.0
model R-SWMS
ASCII
DATASET RECTILINEAR_GRID
DIMENSIONS      21    21    21
X_COORDINATES      21 float
 -5.0000E+00 -4.5000E+00 -4.0000E+00 -3.5000E+00 -3.0000E+00 -2.5000E+00 -2.0000E+00 -1.5000E+00 -1.0000E+00 -5.0000E-01  0.0000E+00  5.0000E-01  1.0000E+00  1.5000E+00  2.0000E+00  2.5000E+00  3.0000E+00  3.5000E+00  4.0000E+00  4.5000E+00  5.0000E+00
Y_COORDINATES      21 float
-5.0000E+00-4.5000E+00-4.0000E+00-3.5000E+00-3.0000E+00-2.5000E+00-2.0000E+00-1.5000E+00-1.0000E+00-5.0000E-01 0.0000E+00 5.0000E-01 1.0000E+00 1.5000E+00 2.0000E+00 2.5000E+00 3.0000E+00 3.5000E+00 4.0000E+00 4.5000E+00 5.0000E+00
Z_COORDINATES      21 float
 0.0000E+00-5.0000E-01-1.0000E+00-1.5000E+00-2.0000E+00-2.5000E+00-3.0000E+00-3.5000E+00-4.0000E+00-4.5000E+00-5.0000E+00-5.5000E+00-6.0000E+00-6.5000E+00-7.0000E+00-7.5000E+00-8.0000E+00-8.5000E+00-9.0000E+00-9.5000E+00-1.0000E+01
     POINT_DATA    9261
SCALARS velocity float 3
LOOKUP_TABLE default
  4.2889E-04  2.1327E-04  2.4608E-04
  8.7183E-04  1.6874E-04  2.9998E-04
  1.7067E-03  2.6424E-04  2.4900E-04
  2.3856E-03  2.7184E-04  2.9996E-04
  2.9590E-03  4.2941E-04  2.3843E-04
  3.2194E-03  4.8737E-04  2.8117E-04
  3.3035E-03  6.8882E-04  2.2023E-04
  2.9565E-03  7.7779E-04  2.7176E-04
  2.4000E-03  9.8389E-04  1.9678E-04
  1.4617E-03  1.0401E-03  2.5299E-04
  3.9646E-04  1.1671E-03  1.7510E-04
 -7.5427E-04  1.1056E-03  2.5298E-04
 -1.8430E-03  1.0863E-03  1.9970E-04
 -2.5956E-03  8.9957E-04  2.8112E-04
 -3.1329E-03  7.9597E-04  2.3721E-04
 -3.1818E-03  5.7169E-04  3.1865E-04
 -3.0174E-03  4.8445E-04  2.7239E-04
 -2.4652E-03  3.0932E-04  3.2806E-04
 -1.7810E-03  2.8590E-04  2.8121E-04
 -9.1397E-04  1.6873E-04  3.3746E-04
 -4.5347E-04  2.1912E-04  2.8240E-04
  3.8436E-04  4.3123E-04  2.9998E-04
  9.0580E-04  4.6696E-04  2.4725E-04
  1.7389E-03  5.3432E-04  2.9997E-04
  2.5016E-03  6.8252E-04  2.4489E-04
  3.0228E-03  8.6232E-04  2.9056E-04
  3.4033E-03  1.1165E-03  2.2259E-04
  3.3925E-03  1.3870E-03  2.7177E-04
  3.1688E-03  1.7028E-03  1.9532E-04
  2.4784E-03  1.9912E-03  2.4362E-04
  1.5975E-03  2.2353E-03  1.5460E-04
  4.1694E-04  2.3752E-03  2.1550E-04
 -8.1749E-04  2.3646E-03  1.4640E-04
 -1.9021E-03  2.2066E-03  2.4361E-04
 -2.8105E-03  1.9408E-03  1.9092E-04
 -3.2283E-03  1.5978E-03  2.8113E-04
 -3.4061E-03  1.2810E-03  2.4660E-04
 -3.0976E-03  9.7005E-04  3.1867E-04
 -2.6022E-03  7.5454E-04  2.7417E-04
 -1.8232E-03  5.7648E-04  3.2808E-04
 -9.5703E-04  4.9126E-04  2.8151E-04
 -4.0309E-04  4.4996E-04  3.3747E-04
  4.8044E-04  8.2260E-04  2.4139E-04
  9.7492E-04  8.5306E-04  2.9060E-04
  1.9205E-03  1.0335E-03  2.4079E-04
  2.7136E-03  1.2748E-03  2.9058E-04
  3.3947E-03  1.6760E-03  2.2612E-04
  3.7441E-03  2.1368E-03  2.6241E-04
  3.9022E-03  2.7355E-03  1.7541E-04
  3.5607E-03  3.3311E-03  2.0614E-04
  2.9570E-03  3.9583E-03  1.0511E-04
  1.8457E-03  4.4502E-03  1.3117E-04
  5.3811E-04  4.7493E-03  2.5764E-05
 -9.2282E-04  4.7312E-03  9.3687E-05
 -2.2931E-03  4.4076E-03  5.2115E-05
 -3.2044E-03  3.8135E-03  1.6865E-04
 -3.8191E-03  3.1543E-03  1.5696E-04
 -3.8095E-03  2.4366E-03  2.7177E-04
 -3.5474E-03  1.8908E-03  2.3958E-04
 -2.8587E-03  1.3966E-03  3.1868E-04
 -2.0408E-03  1.1081E-03  2.7505E-04
 -1.0405E-03  8.9520E-04  3.3746E-04
 -5.1147E-04  8.5713E-04  2.8298E-04
  4.8746E-04  1.0780E-03  2.9060E-04
  1.1123E-03  1.1785E-03  2.4050E-04
  2.1606E-03  1.3732E-03  2.9058E-04
  3.1388E-03  1.7897E-03  2.2613E-04
  3.8848E-03  2.3009E-03  2.6242E-04
  4.4734E-03  3.0624E-03  1.7015E-04
  4.5868E-03  3.8887E-03  1.7804E-04
  4.4302E-03  4.8870E-03  5.2995E-05
  3.5975E-03  5.8037E-03  4.6842E-05
  2.4377E-03  6.6391E-03 -1.2500E-04
  6.9787E-04  7.0817E-03 -1.3114E-04
 -1.1856E-03  7.0841E-03 -2.4238E-04
 -2.8197E-03  6.4732E-03 -1.0305E-04
 -4.1286E-03  5.6025E-03 -8.9002E-05
 -4.6052E-03  4.4412E-03  9.3696E-05
 -4.6897E-03  3.4757E-03  1.2621E-04
 -4.1376E-03  2.5444E-03  2.5304E-04
 -3.3770E-03  1.9360E-03  2.3900E-04
 -2.3245E-03  1.4388E-03  3.1869E-04
 -1.2019E-03  1.2153E-03  2.7740E-04
 -5.2493E-04  1.0967E-03  3.3745E-04
  6.2161E-04  1.2391E-03  2.4314E-04
  1.2701E-03  1.2936E-03  2.9996E-04
  2.5220E-03  1.6087E-03  2.3023E-04
  3.6413E-03  2.0432E-03  2.6243E-04
  4.6621E-03  2.7966E-03  1.7367E-04
  5.3319E-03  3.6686E-03  1.7804E-04
  5.7557E-03  4.8890E-03  3.1036E-05
  5.4756E-03  6.1314E-03 -1.8736E-05
  4.7888E-03  7.5363E-03 -2.4120E-04
  3.1236E-03  8.6308E-03 -3.4654E-04
  1.0094E-03  9.3477E-03 -6.4066E-04
 -1.5313E-03  9.1595E-03 -6.3686E-04
 -3.8835E-03  8.3775E-03 -6.2578E-04
 -5.2363E-03  6.8568E-03 -3.5595E-04
 -6.0029E-03  5.4788E-03 -1.9088E-04
 -5.7062E-03  4.0009E-03  7.4959E-05
 -5.0703E-03  2.9946E-03  1.3705E-04
 -3.9644E-03  2.1275E-03  2.7179E-04
 -2.7413E-03  1.6370E-03  2.5336E-04
 -1.3826E-03  1.2888E-03  3.2806E-04
 -6.8133E-04  1.2262E-03  2.7710E-04
  6.5615E-04  1.1530E-03  2.9996E-04
  1.4722E-03  1.2900E-03  2.4020E-04
  2.9103E-03  1.5559E-03  2.8119E-04
  4.3048E-03  2.1415E-03  1.9154E-04
  5.5102E-03  2.8863E-03  1.9679E-04
  6.5650E-03  4.0644E-03  4.5970E-05
  7.0495E-03  5.3820E-03 -2.8105E-05
  7.1520E-03  7.1572E-03 -2.9095E-04
  6.0966E-03  8.8266E-03 -4.6825E-04
  4.3612E-03  1.0441E-02 -9.2117E-04
  1.2266E-03  1.1175E-02 -1.2266E-03
 -2.2767E-03  1.0928E-02 -1.4475E-03
 -5.1222E-03  9.3642E-03 -1.2454E-03
 -7.1474E-03  7.6063E-03 -8.6251E-04
 -7.4610E-03  5.5969E-03 -4.2153E-04
 -7.1511E-03  4.1665E-03 -1.3439E-04
 -6.0111E-03  2.8861E-03  1.4056E-04
 -4.6943E-03  2.1083E-03  1.8831E-04
 -3.1632E-03  1.4949E-03  2.9992E-04
 -1.5969E-03  1.2214E-03  2.6772E-04
 -7.3111E-04  1.0826E-03  3.2806E-04
  8.1607E-04  9.4144E-04  2.4547E-04
  1.6731E-03  1.0029E-03  2.9994E-04
  3.3455E-03  1.3467E-03  2.1967E-04
  4.9717E-03  1.8369E-03  2.3429E-04
  6.5455E-03  2.7365E-03  9.7511E-05
  7.8276E-03  3.8272E-03  2.8106E-05
  8.8652E-03  5.5423E-03 -2.4881E-04
  8.9201E-03  7.3936E-03 -4.8698E-04
  8.2614E-03  9.8074E-03 -1.0209E-03
  5.4717E-03  1.1692E-02 -1.4791E-03
  1.5258E-03  1.2713E-02 -2.1816E-03
 -3.3418E-03  1.1860E-02 -2.3308E-03
 -7.4671E-03  9.7520E-03 -1.8019E-03
 -9.0034E-03  7.1868E-03 -1.1424E-03
 -9.4445E-03  5.2175E-03 -5.8713E-04
 -8.4172E-03  3.5552E-03 -1.4052E-04
 -7.0680E-03  2.4962E-03  4.0114E-05
 -5.3556E-03  1.6493E-03  2.3428E-04
 -3.5948E-03  1.1868E-03  2.4075E-04
 -1.7949E-03  8.6229E-04  3.2805E-04
 -8.7579E-04  8.0666E-04  2.7475E-04
  8.5296E-04  4.7335E-04  2.9994E-04
  1.8591E-03  5.8552E-04  2.3872E-04
  3.7443E-03  8.0603E-04  2.8117E-04
  5.6375E-03  1.3214E-03  1.6048E-04
  7.5006E-03  1.9958E-03  1.2181E-04
  9.2989E-03  3.2244E-03 -1.4111E-04
  1.0616E-02  4.6735E-03 -3.6526E-04
  1.1495E-02  7.0769E-03 -9.4745E-04
  1.0395E-02  9.5105E-03 -1.5726E-03
  7.7186E-03  1.2682E-02 -2.6415E-03
  1.3943E-03  1.4036E-02 -3.2003E-03
 -5.6078E-03  1.2570E-02 -2.9332E-03
 -9.7951E-03  9.3692E-03 -2.0498E-03
 -1.1824E-02  6.4203E-03 -1.1650E-03
 -1.1093E-02  4.0738E-03 -4.5888E-04
 -9.8050E-03  2.6600E-03 -1.6539E-04
 -7.9171E-03  1.6068E-03  1.2180E-04
 -5.9520E-03  1.0141E-03  1.8068E-04
 -3.9503E-03  5.8106E-04  3.0927E-04
 -1.9612E-03  3.9014E-04  2.6888E-04
 -9.0916E-04  2.9056E-04  3.2805E-04
  9.7247E-04 -9.9590E-05  2.4605E-04
  2.0058E-03 -6.5611E-05  2.9993E-04
  4.0374E-03  1.1803E-04  2.1058E-04
  6.1615E-03  3.8890E-04  2.0617E-04
  8.3433E-03  9.6418E-04  8.7839E-07
  1.0506E-02  1.7049E-03 -1.7798E-04
  1.2557E-02  3.1504E-03 -7.0675E-04
  1.3757E-02  4.7980E-03 -1.3387E-03
  1.4141E-02  8.0684E-03 -2.6474E-03
  9.9967E-03  1.1325E-02 -4.3598E-03
  2.1757E-03  1.5628E-02 -4.8061E-03
 -8.0079E-03  1.5080E-02 -3.2462E-03
 -1.4596E-02  8.8771E-03 -1.9833E-03
 -1.4299E-02  4.5682E-03 -1.0297E-03
 -1.3058E-02  2.6114E-03 -4.9982E-04
 -1.0884E-02  1.2177E-03 -2.8101E-05
 -8.6280E-03  5.5073E-04  8.4614E-05
 -6.3815E-03  8.9022E-05  2.6238E-04
 -4.1881E-03 -1.3062E-04  2.5187E-04
 -2.0854E-03 -2.7649E-04  3.3741E-04
 -1.0129E-03 -3.0052E-04  2.7826E-04
  9.5607E-04 -8.0610E-04  3.0932E-04
  2.0609E-03 -7.9319E-04  2.3784E-04
  4.1988E-03 -7.6853E-04  2.7180E-04
  6.4134E-03 -6.8761E-04  1.3120E-04
  8.8167E-03 -5.6217E-04  5.6217E-05
  1.1299E-02 -2.4882E-04 -3.4542E-04
  1.3710E-02  1.7792E-04 -8.1471E-04
  1.5964E-02  1.2497E-03 -1.9038E-03
  1.6923E-02  2.5639E-03 -3.4435E-03
  1.6284E-02  7.0062E-03 -5.5160E-03
  5.1475E-03  1.3684E-02 -7.3869E-03
 -1.3797E-02  1.0052E-02 -3.0859E-03
 -2.0308E-02  3.9156E-03 -2.1987E-03
 -1.7221E-02  1.5307E-03 -1.3172E-03
 -1.4444E-02 -1.8728E-05 -4.2137E-04
 -1.1641E-02 -5.1986E-04 -1.2294E-04
 -9.0458E-03 -8.3385E-04  1.7801E-04
 -6.5728E-03 -9.2918E-04  2.0528E-04
 -4.3158E-03 -9.7938E-04  3.1865E-04
 -2.1197E-03 -9.9088E-04  2.7620E-04
 -9.7479E-04 -9.9353E-04  3.4680E-04
  9.8949E-04 -1.5168E-03  2.4547E-04
  2.0434E-03 -1.5419E-03  2.9995E-04
  4.1237E-03 -1.6727E-03  2.1059E-04
  6.3679E-03 -1.8555E-03  2.1554E-04
  8.7163E-03 -2.1919E-03 -1.0541E-05
  1.1246E-02 -2.5761E-03 -2.3419E-04
  1.3810E-02 -3.2227E-03 -9.1833E-04
  1.6144E-02 -3.8569E-03 -1.7974E-03
  1.8357E-02 -4.8768E-03 -3.4111E-03
  2.1120E-02 -5.0928E-03 -5.6587E-03
  6.2455E-03 -4.1795E-03 -2.9035E-03
 -1.7775E-02 -2.0290E-03 -4.1422E-03
 -2.2841E-02 -3.8840E-03 -1.9771E-03
 -1.8234E-02 -3.7349E-03 -1.2075E-03
 -1.4648E-02 -3.2198E-03 -5.5512E-04
 -1.1700E-02 -2.6743E-03 -2.8101E-05
 -8.9452E-03 -2.3128E-03  9.5158E-05
 -6.5270E-03 -2.0148E-03  2.8113E-04
 -4.2313E-03 -1.8408E-03  2.5862E-04
 -2.0996E-03 -1.7106E-03  3.3743E-04
 -1.0164E-03 -1.6901E-03  2.8413E-04
  8.8115E-04 -2.1279E-03  2.9997E-04
  1.9111E-03 -2.2345E-03  2.3786E-04
  3.8851E-03 -2.4464E-03  2.8119E-04
  5.9187E-03 -2.9326E-03  1.6547E-04
  8.0961E-03 -3.5561E-03  1.3119E-04
  1.0320E-02 -4.7067E-03 -1.8708E-04
  1.2428E-02 -6.0222E-03 -5.3385E-04
  1.4321E-02 -8.4634E-03 -1.2693E-03
  1.5687E-02 -1.0866E-02 -1.9655E-03
  1.6896E-02 -1.6092E-02 -2.9997E-03
  8.2111E-03 -2.0612E-02 -3.9466E-03
 -1.3880E-02 -1.7492E-02 -2.2095E-04
 -2.2014E-02 -1.1520E-02 -1.1229E-04
 -1.6150E-02 -8.6514E-03 -5.4797E-04
 -1.3383E-02 -6.0640E-03 -2.2477E-04
 -1.0753E-02 -4.7221E-03 -5.0938E-05
 -8.3862E-03 -3.6309E-03  1.8740E-04
 -6.1130E-03 -3.0391E-03  2.1291E-04
 -4.0116E-03 -2.5869E-03  3.1868E-04
 -1.9717E-03 -2.3864E-03  2.7798E-04
 -9.0925E-04 -2.2825E-03  3.4683E-04
  8.4253E-04 -2.6448E-03  2.4491E-04
  1.7249E-03 -2.7092E-03  2.9998E-04
  3.4668E-03 -3.0807E-03  2.2761E-04
  5.2581E-03 -3.6038E-03  2.6244E-04
  7.0605E-03 -4.6052E-03  1.2622E-04
  8.7793E-03 -5.8279E-03  6.5587E-05
  1.0361E-02 -7.9316E-03 -2.5029E-04
  1.1299E-02 -1.0213E-02 -4.6825E-04
  1.1786E-02 -1.4071E-02 -8.4233E-04
  1.1372E-02 -1.7924E-02 -7.9558E-04
  4.2980E-03 -2.3736E-02 -8.9480E-04
 -8.6843E-03 -2.4556E-02 -9.9196E-04
 -1.4441E-02 -1.6160E-02 -2.7703E-04
 -1.2778E-02 -1.0671E-02 -1.7792E-04
 -1.1108E-02 -8.0705E-03 -1.0157E-04
 -9.2661E-03 -5.9213E-03  1.1243E-04
 -7.3797E-03 -4.7066E-03  1.6048E-04
 -5.4829E-03 -3.7302E-03  2.9055E-04
 -3.6103E-03 -3.2136E-03  2.6392E-04
 -1.7951E-03 -2.8544E-03  3.3747E-04
 -8.7240E-04 -2.7894E-03  2.8299E-04
  6.7501E-04 -2.8828E-03  3.0000E-04
  1.4962E-03 -3.0413E-03  2.4053E-04
  2.9904E-03 -3.3467E-03  2.9061E-04
  4.4741E-03 -4.0394E-03  2.1618E-04
  5.8718E-03 -4.9299E-03  2.3431E-04
  7.1761E-03 -6.3989E-03  1.1333E-04
  8.0435E-03 -8.0997E-03  7.4954E-05
  8.5732E-03 -1.0636E-02 -1.2148E-04
  7.9747E-03 -1.3262E-02 -1.4048E-04
  6.6507E-03 -1.6990E-02 -1.8494E-04
  1.5823E-03 -2.0945E-02 -8.4265E-05
 -4.8118E-03 -1.9199E-02 -5.2346E-04
 -8.1286E-03 -1.4810E-02 -2.9967E-04
 -9.3308E-03 -1.1305E-02 -1.0567E-04
 -8.6333E-03 -8.4038E-03  7.4950E-05
 -7.6157E-03 -6.6113E-03  1.2504E-04
 -6.1950E-03 -5.1031E-03  2.5305E-04
 -4.6990E-03 -4.2004E-03  2.4371E-04
 -3.1357E-03 -3.5013E-03  3.2810E-04
 -1.5668E-03 -3.1892E-03  2.7597E-04
 -7.1250E-04 -3.0328E-03  3.2812E-04
  6.1704E-04 -2.9856E-03  2.3850E-04
  1.2610E-03 -3.0565E-03  2.9064E-04
  2.5082E-03 -3.4469E-03  2.3702E-04
  3.6748E-03 -3.9982E-03  2.8124E-04
  4.7826E-03 -4.9513E-03  2.0710E-04
  5.6094E-03 -6.0921E-03  2.3431E-04
  6.2244E-03 -7.7297E-03  1.3266E-04
  6.1371E-03 -9.5055E-03  1.4054E-04
  5.6020E-03 -1.1664E-02  2.4299E-05
  3.6907E-03 -1.3732E-02  3.7469E-05
  9.2730E-04 -1.4979E-02 -1.2235E-04
 -2.5525E-03 -1.4847E-02 -9.3669E-05
 -5.4178E-03 -1.2646E-02 -1.1622E-04
 -6.3710E-03 -1.0170E-02  2.8108E-05
 -6.6336E-03 -8.1686E-03  1.0278E-04
 -5.9653E-03 -6.3824E-03  2.3430E-04
 -5.0645E-03 -5.1794E-03  2.2555E-04
 -3.8810E-03 -4.1809E-03  3.0935E-04
 -2.6403E-03 -3.6100E-03  2.6778E-04
 -1.3266E-03 -3.2064E-03  3.2814E-04
 -6.4809E-04 -3.1315E-03  2.7072E-04
  4.5944E-04 -2.8035E-03  2.8129E-04
  1.0490E-03 -2.9389E-03  2.3324E-04
  2.0486E-03 -3.2066E-03  2.9065E-04
  3.0031E-03 -3.7707E-03  2.2970E-04
  3.7780E-03 -4.4811E-03  2.7186E-04
  4.4215E-03 -5.5223E-03  2.0915E-04
  4.6301E-03 -6.6921E-03  2.4369E-04
  4.5684E-03 -8.1185E-03  1.5785E-04
  3.7483E-03 -9.5440E-03  1.8741E-04
  2.5112E-03 -1.0771E-02  8.0230E-05
  4.6848E-04 -1.1604E-02  1.1244E-04
 -1.7393E-03 -1.1266E-02 -5.8561E-07
 -3.4530E-03 -1.0228E-02  8.4333E-05
 -4.6584E-03 -8.7133E-03  1.0162E-04
 -4.8455E-03 -7.1324E-03  2.2494E-04
 -4.6774E-03 -5.8514E-03  2.2028E-04
 -3.9935E-03 -4.7153E-03  2.9998E-04
 -3.1709E-03 -3.9625E-03  2.5987E-04
 -2.1611E-03 -3.3612E-03  3.1878E-04
 -1.1032E-03 -3.0786E-03  2.6400E-04
 -4.7819E-04 -2.9348E-03  3.1879E-04
  4.1904E-04 -2.4960E-03  2.2563E-04
  8.5799E-04 -2.5505E-03  2.8131E-04
  1.6878E-03 -2.8317E-03  2.2973E-04
  2.4003E-03 -3.2254E-03  2.8128E-04
  3.0362E-03 -3.8531E-03  2.2355E-04
  3.3984E-03 -4.5890E-03  2.8124E-04
  3.5800E-03 -5.5199E-03  2.1004E-04
  3.2853E-03 -6.4957E-03  2.4370E-04
  2.7421E-03 -7.4571E-03  1.7222E-04
  1.6307E-03 -8.2849E-03  2.1556E-04
  2.9404E-04 -8.6403E-03  1.3121E-04
 -1.1762E-03 -8.5941E-03  1.9681E-04
 -2.5177E-03 -7.9027E-03  1.4234E-04
 -3.2759E-03 -6.9454E-03  2.4370E-04
 -3.7068E-03 -5.8979E-03  2.1736E-04
 -3.5483E-03 -4.8748E-03  2.9999E-04
 -3.1932E-03 -4.0786E-03  2.5695E-04
 -2.5268E-03 -3.3988E-03  3.1879E-04
 -1.7722E-03 -2.9776E-03  2.6137E-04
 -9.0018E-04 -2.6771E-03  3.0944E-04
 -4.3896E-04 -2.6179E-03  2.5728E-04
  2.9070E-04 -1.9833E-03  2.7195E-04
  7.1679E-04 -2.0671E-03  2.2213E-04
  1.3738E-03 -2.2365E-03  2.7194E-04
  1.9844E-03 -2.5716E-03  2.2153E-04
  2.4144E-03 -2.9864E-03  2.7191E-04
  2.7292E-03 -3.5572E-03  2.2180E-04
  2.7235E-03 -4.1813E-03  2.7188E-04
  2.5434E-03 -4.8531E-03  2.1093E-04
  1.9592E-03 -5.4932E-03  2.6247E-04
  1.1928E-03 -5.9640E-03  1.9743E-04
  1.5935E-04 -6.2521E-03  2.6246E-04
 -9.0690E-04 -6.1362E-03  1.8982E-04
 -1.8045E-03 -5.7837E-03  2.6247E-04
 -2.5211E-03 -5.1553E-03  2.2030E-04
 -2.7750E-03 -4.4531E-03  3.0000E-04
 -2.8282E-03 -3.7810E-03  2.5051E-04
 -2.5175E-03 -3.1645E-03  3.0942E-04
 -2.0761E-03 -2.7131E-03  2.5522E-04
 -1.4394E-03 -2.3537E-03  3.0945E-04
 -7.4785E-04 -2.1720E-03  2.5143E-04
 -3.0008E-04 -2.0818E-03  3.0008E-04
  2.9540E-04 -1.4020E-03  2.1569E-04
  6.0487E-04 -1.4301E-03  2.7196E-04
  1.1833E-03 -1.5678E-03  2.1744E-04
  1.6504E-03 -1.7582E-03  2.7194E-04
  2.0392E-03 -2.0574E-03  2.2006E-04
  2.2035E-03 -2.4004E-03  2.7192E-04
  2.2429E-03 -2.8078E-03  2.2239E-04
  1.9735E-03 -3.2205E-03  2.8126E-04
  1.5565E-03 -3.5933E-03  2.2178E-04
  8.7185E-04 -3.8999E-03  2.8124E-04
  9.9899E-05 -4.0144E-03  2.2001E-04
 -7.0779E-04 -3.9983E-03  2.8124E-04
 -1.4534E-03 -3.7532E-03  2.3115E-04
 -1.9454E-03 -3.4032E-03  3.0001E-04
 -2.2754E-03 -2.9786E-03  2.4787E-04
 -2.2597E-03 -2.5504E-03  3.0004E-04
 -2.1121E-03 -2.1784E-03  2.5259E-04
 -1.7160E-03 -1.8567E-03  3.0007E-04
 -1.2311E-03 -1.6478E-03  2.4587E-04
 -6.2831E-04 -1.4958E-03  3.0009E-04
 -3.0478E-04 -1.4676E-03  2.4383E-04
  2.0632E-04 -7.1274E-04  2.6259E-04
  5.4920E-04 -7.4145E-04  2.1394E-04
  1.0456E-03 -7.9712E-04  2.7196E-04
  1.4905E-03 -9.0728E-04  2.1979E-04
  1.7723E-03 -1.0409E-03  2.7194E-04
  1.9603E-03 -1.2178E-03  2.2153E-04
  1.9034E-03 -1.4065E-03  2.8129E-04
  1.7228E-03 -1.6015E-03  2.2795E-04
  1.2798E-03 -1.7814E-03  2.9064E-04
  7.3656E-04 -1.9097E-03  2.3087E-04
  6.0939E-05 -1.9876E-03  2.9063E-04
 -6.2727E-04 -1.9527E-03  2.3644E-04
 -1.2094E-03 -1.8611E-03  3.0002E-04
 -1.6982E-03 -1.6883E-03  2.4788E-04
 -1.9221E-03 -1.4861E-03  3.0942E-04
 -2.0043E-03 -1.2881E-03  2.4907E-04
 -1.8239E-03 -1.1018E-03  3.0007E-04
 -1.5411E-03 -9.5505E-04  2.4411E-04
 -1.0785E-03 -8.3463E-04  2.9071E-04
 -5.6767E-04 -7.7516E-04  2.4119E-04
 -2.1570E-04 -7.4556E-04  2.9072E-04
  2.5321E-04 -3.4699E-04  2.1101E-04
  5.2049E-04 -3.0010E-04  2.6259E-04
  1.0175E-03 -3.8919E-04  2.1569E-04
  1.4067E-03 -3.8449E-04  2.7195E-04
  1.7225E-03 -5.1165E-04  2.1744E-04
  1.8379E-03 -5.4386E-04  2.7193E-04
  1.8442E-03 -6.8625E-04  2.2562E-04
  1.5986E-03 -7.2196E-04  2.9066E-04
  1.2300E-03 -8.6316E-04  2.3615E-04
  6.6567E-04 -8.8131E-04  2.9064E-04
  5.3323E-05 -9.6158E-04  2.3615E-04
 -5.8129E-04 -9.0006E-04  3.0002E-04
 -1.1714E-03 -9.0066E-04  2.4553E-04
 -1.5705E-03 -7.7822E-04  3.0004E-04
 -1.8577E-03 -7.2433E-04  2.5082E-04
 -1.8754E-03 -5.7199E-04  3.0006E-04
 -1.7711E-03 -5.3802E-04  2.4498E-04
 -1.4489E-03 -4.0324E-04  3.0009E-04
 -1.0503E-03 -4.0560E-04  2.4148E-04
 -5.3924E-04 -3.1886E-04  2.9072E-04
 -2.6259E-04 -3.6575E-04  2.3914E-04
  3.7100E-04  1.5220E-04  4.6137E-04
  8.9241E-04  2.2712E-04  4.6315E-04
  1.7122E-03  2.0927E-04  4.6135E-04
  2.4576E-03  3.3827E-04  4.5776E-04
  2.9675E-03  3.8045E-04  4.5179E-04
  3.3272E-03  5.6261E-04  4.3600E-04
  3.2999E-03  6.4667E-04  4.2794E-04
  3.0712E-03  8.6444E-04  4.0206E-04
  2.3914E-03  9.6036E-04  3.9460E-04
  1.5302E-03  1.1416E-03  3.6249E-04
  3.8982E-04  1.1600E-03  3.7556E-04
 -7.9837E-04  1.2090E-03  3.7051E-04
 -1.8398E-03  1.0744E-03  4.1836E-04
 -2.7133E-03  9.9039E-04  4.3354E-04
 -3.1286E-03  7.6075E-04  4.8022E-04
 -3.3092E-03  6.5471E-04  4.9720E-04
 -3.0149E-03  4.3750E-04  5.2309E-04
 -2.5446E-03  3.7897E-04  5.2818E-04
 -1.7835E-03  2.3780E-04  5.3742E-04
 -9.3874E-04  2.4018E-04  5.3566E-04
 -3.9952E-04  1.6171E-04  5.3745E-04
  4.4799E-04  4.4740E-04  4.6523E-04
  9.0846E-04  4.6612E-04  4.6612E-04
  1.7877E-03  5.5677E-04  4.6046E-04
  2.5111E-03  6.8485E-04  4.5657E-04
  3.1227E-03  8.9316E-04  4.4257E-04
  3.4095E-03  1.1317E-03  4.2797E-04
  3.5153E-03  1.4410E-03  4.0000E-04
  3.1665E-03  1.7496E-03  3.8511E-04
  2.5919E-03  2.0686E-03  3.3962E-04
  1.5926E-03  2.3247E-03  3.2802E-04
  4.3913E-04  2.4723E-03  2.9444E-04
 -8.2241E-04  2.4767E-03  3.2801E-04
 -2.0026E-03  2.3039E-03  3.4110E-04
 -2.8050E-03  2.0158E-03  4.0886E-04
 -3.3737E-03  1.6706E-03  4.3475E-04
 -3.4093E-03  1.3076E-03  4.8501E-04
 -3.2093E-03  1.0168E-03  5.0258E-04
 -2.6061E-03  7.5615E-04  5.2312E-04
 -1.8777E-03  6.0222E-04  5.2999E-04
 -9.6073E-04  4.8512E-04  5.3268E-04
 -4.7502E-04  4.6729E-04  5.3566E-04
  4.2807E-04  8.1808E-04  4.6612E-04
  1.0009E-03  8.9001E-04  4.6225E-04
  1.9310E-03  1.0321E-03  4.5658E-04
  2.7923E-03  1.3263E-03  4.4348E-04
  3.4144E-03  1.6882E-03  4.2799E-04
  3.8831E-03  2.2206E-03  3.8575E-04
  3.9178E-03  2.7957E-03  3.4709E-04
  3.7192E-03  3.4720E-03  2.7574E-04
  2.9664E-03  4.0978E-03  2.2818E-04
  1.9641E-03  4.6534E-03  1.3310E-04
  5.4188E-04  4.9863E-03  1.1408E-04
 -9.7652E-04  4.9810E-03  7.2786E-05
 -2.3007E-03  4.6252E-03  1.7588E-04
 -3.3839E-03  4.0168E-03  2.2640E-04
 -3.8367E-03  3.2567E-03  3.4231E-04
 -3.9782E-03  2.5688E-03  3.9970E-04
 -3.5664E-03  1.9163E-03  4.7076E-04
 -2.9574E-03  1.4665E-03  4.9874E-04
 -2.0545E-03  1.1034E-03  5.2314E-04
 -1.0710E-03  9.3426E-04  5.3089E-04
 -4.5658E-04  8.4658E-04  5.3744E-04
  5.5053E-04  1.1207E-03  4.6313E-04
  1.1224E-03  1.1652E-03  4.6134E-04
  2.2195E-03  1.4295E-03  4.4825E-04
  3.1672E-03  1.7929E-03  4.2801E-04
  4.0161E-03  2.4017E-03  3.8280E-04
  4.5170E-03  3.1048E-03  3.2808E-04
  4.7917E-03  4.0598E-03  2.2256E-04
  4.4685E-03  5.0294E-03  1.2360E-04
  3.8311E-03  6.0868E-03 -4.4264E-05
  2.4810E-03  6.9534E-03 -1.7586E-04
  8.0320E-04  7.5267E-03 -3.8170E-04
 -1.1834E-03  7.5235E-03 -3.7546E-04
 -3.0371E-03  6.9387E-03 -3.1369E-04
 -4.1734E-03  5.8799E-03 -6.1793E-05
 -4.8822E-03  4.7536E-03  7.2199E-05
 -4.7497E-03  3.5563E-03  2.7576E-04
 -4.3142E-03  2.6901E-03  3.8247E-04
 -3.4191E-03  1.9402E-03  4.7078E-04
 -2.3984E-03  1.5096E-03  5.0648E-04
 -1.2175E-03  1.2032E-03  5.2790E-04
 -5.9717E-04  1.1477E-03  5.3178E-04
  5.7073E-04  1.2223E-03  4.6609E-04
  1.3025E-03  1.3501E-03  4.5776E-04
  2.5586E-03  1.5979E-03  4.4229E-04
  3.7520E-03  2.1370E-03  3.9886E-04
  4.7264E-03  2.8149E-03  3.3760E-04
  5.5510E-03  3.8487E-03  2.1484E-04
  5.8423E-03  4.9961E-03  7.1306E-05
  5.8032E-03  6.4585E-03 -1.7111E-04
  4.8902E-03  7.8463E-03 -3.9920E-04
  3.5037E-03  9.1799E-03 -8.0961E-04
  1.1119E-03  9.9833E-03 -1.1547E-03
 -1.6233E-03  1.0055E-02 -1.4312E-03
 -3.9442E-03  8.9576E-03 -1.0882E-03
 -5.6936E-03  7.5985E-03 -8.6052E-04
 -6.1602E-03  5.6944E-03 -3.2322E-04
 -6.0560E-03  4.3044E-03  1.0399E-05
 -5.1825E-03  3.0192E-03  2.9003E-04
 -4.1111E-03  2.2420E-03  4.1162E-04
 -2.7915E-03  1.6216E-03  4.9457E-04
 -1.4205E-03  1.3509E-03  5.1957E-04
 -6.3728E-04  1.2080E-03  5.3265E-04
  7.3093E-04  1.2053E-03  4.6459E-04
  1.4981E-03  1.2698E-03  4.5656E-04
  2.9868E-03  1.6282E-03  4.2949E-04
  4.3843E-03  2.1303E-03  3.8041E-04
  5.7082E-03  3.0334E-03  2.6358E-04
  6.6982E-03  4.1121E-03  1.0459E-04
  7.4336E-03  5.6960E-03 -1.8151E-04
  7.3185E-03  7.3898E-03 -5.1800E-04
  6.6725E-03  9.4118E-03 -1.0471E-03
  4.6178E-03  1.1093E-02 -1.6058E-03
  1.7161E-03  1.2288E-02 -2.6614E-03
 -2.2090E-03  1.1833E-02 -3.2018E-03
 -5.7255E-03  1.0469E-02 -2.7324E-03
 -7.4364E-03  7.9543E-03 -2.1335E-03
 -8.1976E-03  6.0593E-03 -9.9121E-04
 -7.4249E-03  4.2258E-03 -2.5669E-04
 -6.3151E-03  3.0635E-03  1.3698E-04
 -4.8167E-03  2.0969E-03  3.7563E-04
 -3.2565E-03  1.5716E-03  4.6751E-04
 -1.6312E-03  1.1984E-03  5.1836E-04
 -8.0044E-04  1.1351E-03  5.2699E-04
  7.7995E-04  9.1787E-04  4.7082E-04
  1.7103E-03  1.0552E-03  4.5595E-04
  3.4191E-03  1.3220E-03  4.2799E-04
  5.1172E-03  1.9376E-03  3.4028E-04
  6.7083E-03  2.7337E-03  2.0919E-04
  8.1833E-03  4.0787E-03 -6.8331E-05
  9.1200E-03  5.6507E-03 -4.2297E-04
  9.6231E-03  7.9696E-03 -1.0625E-03
  8.5934E-03  1.0337E-02 -1.7624E-03
  6.6098E-03  1.2730E-02 -3.1213E-03
  1.8521E-03  1.3872E-02 -4.8297E-03
 -3.7342E-03  1.3031E-02 -5.0192E-03
 -7.8228E-03  1.0198E-02 -4.4933E-03
 -1.0225E-02  7.4398E-03 -2.4743E-03
 -9.8888E-03  5.2081E-03 -1.2355E-03
 -8.9681E-03  3.6970E-03 -4.1114E-04
 -7.3115E-03  2.4720E-03  9.9832E-05
 -5.5433E-03  1.7292E-03  3.3491E-04
 -3.6900E-03  1.1603E-03  4.7076E-04
 -1.8365E-03  9.0978E-04  5.1478E-04
 -8.3698E-04  7.8467E-04  5.3738E-04
  9.2380E-04  5.0886E-04  4.6903E-04
  1.9022E-03  5.6116E-04  4.6129E-04
  3.8283E-03  8.6071E-04  4.1341E-04
  5.7960E-03  1.2980E-03  3.2808E-04
  7.7746E-03  2.1553E-03  1.0934E-04
  9.6153E-03  3.2463E-03 -2.0438E-04
  1.1282E-02  5.1504E-03 -8.3543E-04
  1.2005E-02  7.3443E-03 -1.6199E-03
  1.1835E-02  1.0860E-02 -3.2021E-03
  8.1523E-03  1.4007E-02 -4.6483E-03
  2.0802E-03  1.5343E-02 -6.7160E-03
 -5.8822E-03  1.3469E-02 -7.3160E-03
 -1.1762E-02  9.5418E-03 -4.3693E-03
 -1.2426E-02  6.3080E-03 -2.0140E-03
 -1.1893E-02  4.1135E-03 -1.0088E-03
 -1.0161E-02  2.5664E-03 -2.6140E-04
 -8.2215E-03  1.6510E-03  1.1973E-04
 -6.1285E-03  9.7467E-04  3.7085E-04
 -4.0421E-03  6.1340E-04  4.7045E-04
 -2.0068E-03  3.6617E-04  5.2785E-04
 -9.7726E-04  3.1981E-04  5.3559E-04
  9.4162E-04 -1.2365E-04  4.8032E-04
  2.0407E-03 -4.7853E-05  4.5980E-04
  4.1561E-03  9.5104E-05  4.2321E-04
  6.3317E-03  4.4991E-04  2.8558E-04
  8.6567E-03  9.4125E-04  6.6553E-05
  1.1020E-02  1.9525E-03 -4.5626E-04
  1.3218E-02  3.2262E-03 -1.2068E-03
  1.5195E-02  5.7543E-03 -2.7932E-03
  1.5255E-02  8.5701E-03 -5.0566E-03
  1.2410E-02  1.4305E-02 -7.9273E-03
  1.3145E-03  1.8185E-02 -9.8706E-03
 -1.0604E-02  1.4083E-02 -7.0912E-03
 -1.4983E-02  8.4603E-03 -3.9453E-03
 -1.5667E-02  5.0421E-03 -2.1138E-03
 -1.3631E-02  2.4705E-03 -6.4614E-04
 -1.1316E-02  1.2742E-03 -1.5416E-04
 -8.9034E-03  4.8486E-04  2.3292E-04
 -6.5347E-03  1.0192E-04  3.9105E-04
 -4.2986E-03 -1.5692E-04  4.9928E-04
 -2.1176E-03 -2.6927E-04  5.3112E-04
 -9.7963E-04 -3.2337E-04  5.4688E-04
  1.0275E-03 -8.1353E-04  4.7409E-04
  2.1210E-03 -8.0845E-04  4.6605E-04
  4.2824E-03 -7.7362E-04  4.0776E-04
  6.6422E-03 -7.1320E-04  2.9954E-04
  9.1374E-03 -5.4282E-04 -1.5153E-05
  1.1901E-02 -2.7565E-04 -5.5605E-04
  1.4715E-02  4.4067E-04 -1.7748E-03
  1.7349E-02  1.2871E-03 -3.6237E-03
  1.9844E-02  3.6221E-03 -7.0612E-03
  1.7765E-02  6.6903E-03 -1.2987E-02
  2.6124E-03  1.0726E-02 -9.2162E-03
 -1.5604E-02  1.1145E-02 -6.3860E-03
 -2.1039E-02  4.6391E-03 -3.8736E-03
 -1.8416E-02  1.3345E-03 -2.3365E-03
 -1.5226E-02  2.2270E-04 -9.5285E-04
 -1.2147E-02 -5.8454E-04 -3.3267E-05
 -9.2701E-03 -8.2594E-04  2.3827E-04
 -6.7704E-03 -9.6040E-04  4.3741E-04
 -4.3848E-03 -9.9501E-04  5.0285E-04
 -2.1732E-03 -1.0082E-03  5.4212E-04
 -1.0522E-03 -1.0112E-03  5.4927E-04
  9.6068E-04 -1.5219E-03  4.7559E-04
  2.0735E-03 -1.5789E-03  4.6071E-04
  4.2513E-03 -1.6834E-03  4.2799E-04
  6.5197E-03 -1.9239E-03  2.9628E-04
  9.0943E-03 -2.2248E-03  7.1309E-05
  1.1850E-02 -2.7611E-03 -5.9053E-04
  1.4781E-02 -3.3306E-03 -1.7722E-03
  1.7667E-02 -4.3294E-03 -3.8382E-03
  2.0660E-02 -5.4926E-03 -7.1210E-03
  1.9502E-02 -7.3038E-03 -8.2762E-03
  5.7675E-03 -5.3169E-03 -6.8157E-03
 -1.7443E-02 -5.0012E-03 -3.4008E-03
 -2.4797E-02 -4.9746E-03 -3.0094E-03
 -1.8696E-02 -4.2985E-03 -1.8242E-03
 -1.5550E-02 -3.3162E-03 -1.0642E-03
 -1.2121E-02 -2.7473E-03 -2.0050E-04
 -9.2793E-03 -2.3293E-03  2.6621E-04
 -6.6556E-03 -2.0623E-03  4.2168E-04
 -4.3463E-03 -1.8546E-03  5.1832E-04
 -2.1275E-03 -1.7519E-03  5.4155E-04
 -9.8919E-04 -1.7026E-03  5.5642E-04
  9.4973E-04 -2.1869E-03  4.7115E-04
  1.9595E-03 -2.2353E-03  4.6608E-04
  3.9543E-03 -2.5273E-03  4.2771E-04
  6.1008E-03 -2.9434E-03  3.5663E-04
  8.3455E-03 -3.7621E-03  1.3936E-04
  1.0795E-02 -4.7865E-03 -2.1389E-04
  1.3287E-02 -6.7313E-03 -1.2260E-03
  1.5187E-02 -8.8687E-03 -2.7646E-03
  1.6631E-02 -1.3287E-02 -4.0166E-03
  1.7942E-02 -1.7529E-02 -4.8130E-03
  5.3268E-03 -2.0955E-02 -2.8126E-03
 -1.5261E-02 -1.9261E-02  3.2268E-04
 -2.0608E-02 -1.3212E-02 -9.5818E-04
 -1.6758E-02 -8.9013E-03 -9.1198E-04
 -1.3751E-02 -6.6288E-03 -5.8534E-04
 -1.1160E-02 -4.7435E-03 -8.5554E-05
 -8.6109E-03 -3.7807E-03  2.4305E-04
 -6.2955E-03 -3.0432E-03  4.3745E-04
 -4.0787E-03 -2.6589E-03  5.0557E-04
 -2.0212E-03 -2.3922E-03  5.4217E-04
 -9.8211E-04 -2.3429E-03  5.4813E-04
  8.0858E-04 -2.6445E-03  4.7088E-04
  1.7536E-03 -2.7901E-03  4.6165E-04
  3.5432E-03 -3.0819E-03  4.4706E-04
  5.3722E-03 -3.7494E-03  3.8519E-04
  7.2510E-03 -4.6264E-03  2.9479E-04
  9.1295E-03 -6.2112E-03  1.6044E-05
  1.0698E-02 -8.1176E-03 -3.6121E-04
  1.1871E-02 -1.1404E-02 -1.0554E-03
  1.1999E-02 -1.4649E-02 -1.2635E-03
  1.1612E-02 -2.0221E-02 -1.7953E-03
  4.0355E-03 -2.6392E-02 -1.3103E-03
 -9.2067E-03 -2.2721E-02 -7.0921E-04
 -1.4434E-02 -1.5474E-02 -7.4568E-04
 -1.3145E-02 -1.1358E-02 -4.8313E-04
 -1.1392E-02 -8.1124E-03 -1.6634E-04
 -9.5501E-03 -6.2487E-03  8.3783E-05
 -7.5788E-03 -4.7166E-03  3.2331E-04
 -5.6042E-03 -3.8646E-03  4.4314E-04
 -3.6953E-03 -3.2150E-03  5.1363E-04
 -1.8249E-03 -2.9331E-03  5.3388E-04
 -8.3710E-04 -2.7872E-03  5.4697E-04
  7.4472E-04 -2.9625E-03  4.5872E-04
  1.5221E-03 -3.0395E-03  4.5663E-04
  3.0458E-03 -3.4516E-03  4.4442E-04
  4.5561E-03 -4.0425E-03  4.2327E-04
  6.0297E-03 -5.1241E-03  3.5397E-04
  7.3030E-03 -6.4567E-03  2.7101E-04
  8.3766E-03 -8.5566E-03  4.7537E-05
  8.6547E-03 -1.0888E-02 -8.5549E-05
  8.4070E-03 -1.4056E-02 -3.6143E-04
  6.1999E-03 -1.7341E-02 -3.3731E-04
  2.0703E-03 -2.0529E-02 -6.2942E-04
 -4.3467E-03 -2.0470E-02 -8.7884E-04
 -9.0142E-03 -1.5444E-02 -6.3311E-04
 -9.3954E-03 -1.1330E-02 -2.7089E-04
 -9.0012E-03 -8.7950E-03  2.1985E-05
 -7.7639E-03 -6.6466E-03  2.6149E-04
 -6.3684E-03 -5.3023E-03  3.8428E-04
 -4.7938E-03 -4.2041E-03  4.8033E-04
 -3.1962E-03 -3.6055E-03  5.0921E-04
 -1.5934E-03 -3.1869E-03  5.2797E-04
 -7.7503E-04 -3.1099E-03  5.2887E-04
  5.7084E-04 -2.9826E-03  4.4716E-04
  1.2832E-03 -3.1387E-03  4.4626E-04
  2.5401E-03 -3.4486E-03  4.4713E-04
  3.7647E-03 -4.1172E-03  4.2748E-04
  4.8367E-03 -4.9746E-03  4.0425E-04
  5.7896E-03 -6.2993E-03  3.4624E-04
  6.2666E-03 -7.8356E-03  2.9003E-04
  6.4198E-03 -9.8405E-03  1.6371E-04
  5.5470E-03 -1.1931E-02  9.5064E-05
  4.0347E-03 -1.4012E-02 -4.8120E-05
  9.0770E-04 -1.5659E-02 -1.7108E-04
 -2.7035E-03 -1.5015E-02 -3.7188E-04
 -5.2947E-03 -1.2994E-02 -3.8499E-04
 -6.8179E-03 -1.0549E-02 -7.1601E-05
 -6.7084E-03 -8.2536E-03  2.0444E-04
 -6.1846E-03 -6.6150E-03  3.4475E-04
 -5.1362E-03 -5.2028E-03  4.5180E-04
 -3.9759E-03 -4.3080E-03  4.8663E-04
 -2.6780E-03 -3.6103E-03  5.0896E-04
 -1.3498E-03 -3.2897E-03  5.1285E-04
 -5.9937E-04 -3.1301E-03  5.1375E-04
  5.1974E-04 -2.8728E-03  4.3292E-04
  1.0561E-03 -2.9400E-03  4.3291E-04
  2.0949E-03 -3.2883E-03  4.3290E-04
  3.0301E-03 -3.7817E-03  4.2811E-04
  3.8815E-03 -4.6001E-03  4.1411E-04
  4.4421E-03 -5.5740E-03  3.9950E-04
  4.8051E-03 -6.8668E-03  3.5339E-04
  4.5599E-03 -8.2592E-03  3.1382E-04
  3.9628E-03 -9.7424E-03  2.3475E-04
  2.4721E-03 -1.1086E-02  1.7590E-04
  5.6363E-04 -1.1746E-02  7.6953E-05
 -1.6829E-03 -1.1704E-02  9.5078E-06
 -3.6979E-03 -1.0516E-02  3.2388E-05
 -4.6549E-03 -8.9056E-03  1.9019E-04
 -5.0876E-03 -7.3561E-03  3.2009E-04
 -4.7130E-03 -5.9067E-03  4.3278E-04
 -4.1121E-03 -4.8535E-03  4.6850E-04
 -3.2013E-03 -3.9766E-03  4.9470E-04
 -2.2073E-03 -3.4498E-03  4.9860E-04
 -1.1132E-03 -3.0779E-03  4.9951E-04
 -5.4501E-04 -3.0081E-03  4.9862E-04
  3.6158E-04 -2.4978E-03  4.1867E-04
  8.7480E-04 -2.6119E-03  4.2045E-04
  1.6984E-03 -2.8354E-03  4.2341E-04
  2.4654E-03 -3.2994E-03  4.2072E-04
  3.0444E-03 -3.8769E-03  4.1861E-04
  3.5041E-03 -4.6899E-03  4.0936E-04
  3.5814E-03 -5.5932E-03  3.9951E-04