# vtk DataFile Version 3.0
model R-SWMS
ASCII
DATASET RECTILINEAR_GRID
DIMENSIONS      21    21    21
X_COORDINATES      21 float
 -5.0000E+00 -4.5000E+00 -4.0000E+00 -3.5000E+00 -3.0000E+00 -2.5000E+00 -2.0000E+00 -1.5000E+00 -1.0000E+00 -5.0000E-01  0.0000E+00  5.0000E-01  1.0000E+00  1.5000E+00  2.0000E+00  2.5000E+00  3.0000E+00  3.5000E+00  4.0000E+00  4.5000E+00  5.0000E+00
Y_COORDINATES      21 float
-5.0000E+00-4.5000E+00-4.0000E+00-3.5000E+00-3.0000E+00-2.5000E+00-2.0000E+00-1.5000E+00-1.0000E+00-5.0000E-01 0.0000E+00 5.0000E-01 1.0000E+00 1.5000E+00 2.0000E+00 2.5000E+00 3.0000E+00 3.5000E+00 4.0000E+00 4.5000E+00 5.0000E+00
Z_COORDINATES      21 float
 0.0000E+00-5.0000E-01-1.0000E+00-1.5000E+00-2.0000E+00-2.5000E+00-3.0000E+00-3.5000E+00-4.0000E+00-4.5000E+00-5.0000E+00-5.5000E+00-6.0000E+00-6.5000E+00-7.0000E+00-7.5000E+00-8.0000E+00-8.5000E+00-9.0000E+00-9.5000E+00-1.0000E+01
     POINT_DATA    9261
SCALARS velocity float 3
LOOKUP_TABLE default
  4.2878E-04  2.0507E-04  2.4702E-04
  8.6687E-04  1.5846E-04  2.9828E-04
  1.7034E-03  2.5866E-04  2.4468E-04
  2.3860E-03  2.7029E-04  2.9826E-04
  2.9591E-03  4.2639E-04  2.4465E-04
  3.2151E-03  4.8460E-04  2.8889E-04
  3.2993E-03  6.9248E-04  2.1840E-04
  2.9584E-03  7.8269E-04  2.6090E-04
  2.4032E-03  9.8471E-04  1.9158E-04
  1.4627E-03  1.0435E-03  2.5155E-04
  3.9420E-04  1.1663E-03  1.7760E-04
 -7.5930E-04  1.1087E-03  2.5155E-04
 -1.8453E-03  1.0860E-03  1.9740E-04
 -2.5995E-03  8.9446E-04  2.8884E-04
 -3.1367E-03  7.9669E-04  2.4227E-04
 -3.1823E-03  5.6844E-04  3.1684E-04
 -3.0160E-03  4.8577E-04  2.6910E-04
 -2.4651E-03  3.0756E-04  3.3552E-04
 -1.7814E-03  2.8661E-04  2.8195E-04
 -9.1344E-04  1.7709E-04  3.3555E-04
 -4.5672E-04  2.2370E-04  2.8429E-04
  3.8217E-04  4.2878E-04  2.9828E-04
  9.0445E-04  4.6344E-04  2.4497E-04
  1.7383E-03  5.3595E-04  2.9827E-04
  2.4987E-03  6.8068E-04  2.4437E-04
  3.0243E-03  8.5742E-04  2.9823E-04
  3.4044E-03  1.1136E-03  2.2715E-04
  3.3872E-03  1.3884E-03  2.7023E-04
  3.1683E-03  1.7037E-03  1.8839E-04
  2.4830E-03  1.9892E-03  2.3292E-04
  1.5960E-03  2.2348E-03  1.5256E-04
  4.1457E-04  2.3710E-03  2.1427E-04
 -8.1954E-04  2.3643E-03  1.4469E-04
 -1.9052E-03  2.2080E-03  2.3291E-04
 -2.8138E-03  1.9438E-03  1.9275E-04
 -3.2333E-03  1.6027E-03  2.8885E-04
 -3.4045E-03  1.2839E-03  2.4607E-04
 -3.0940E-03  9.7386E-04  3.1686E-04
 -2.6052E-03  7.5754E-04  2.7406E-04
 -1.8221E-03  5.7787E-04  3.2621E-04
 -9.5625E-04  4.9313E-04  2.8341E-04
 -4.1012E-04  4.5206E-04  3.3555E-04
  4.7887E-04  8.2259E-04  2.4818E-04
  9.7405E-04  8.5753E-04  2.9827E-04
  1.9189E-03  1.0340E-03  2.4350E-04
  2.7075E-03  1.2769E-03  2.9825E-04
  3.3929E-03  1.6775E-03  2.2542E-04
  3.7461E-03  2.1340E-03  2.6092E-04
  3.9024E-03  2.7348E-03  1.7704E-04
  3.5591E-03  3.3355E-03  2.0497E-04
  2.9597E-03  3.9612E-03  1.0248E-04
  1.8445E-03  4.4529E-03  1.3042E-04
  5.3418E-04  4.7494E-03  2.5326E-05
 -9.2223E-04  4.7276E-03  9.3155E-05
 -2.2937E-03  4.4061E-03  5.1528E-05
 -3.2049E-03  3.8104E-03  1.7701E-04
 -3.8218E-03  3.1568E-03  1.5898E-04
 -3.8111E-03  2.4413E-03  2.7023E-04
 -3.5459E-03  1.8912E-03  2.3822E-04
 -2.8611E-03  1.3980E-03  3.1687E-04
 -2.0423E-03  1.1085E-03  2.7553E-04
 -1.0392E-03  8.9478E-04  3.3554E-04
 -5.1439E-04  8.5692E-04  2.8486E-04
  4.9401E-04  1.0719E-03  2.9827E-04
  1.1133E-03  1.1773E-03  2.4584E-04
  2.1577E-03  1.3701E-03  2.8893E-04
  3.1388E-03  1.7897E-03  2.2863E-04
  3.8814E-03  2.3065E-03  2.6093E-04
  4.4712E-03  3.0636E-03  1.6918E-04
  4.5887E-03  3.8852E-03  1.7702E-04
  4.4321E-03  4.8892E-03  5.1821E-05
  3.6003E-03  5.8033E-03  4.6576E-05
  2.4349E-03  6.6386E-03 -1.2429E-04
  6.8924E-04  7.0834E-03 -1.3040E-04
 -1.1881E-03  7.0840E-03 -2.4450E-04
 -2.8223E-03  6.4690E-03 -1.0246E-04
 -4.1285E-03  5.5992E-03 -9.1990E-05
 -4.6023E-03  4.4393E-03  9.3164E-05
 -4.6919E-03  3.4737E-03  1.2579E-04
 -4.1374E-03  2.5393E-03  2.5160E-04
 -3.3783E-03  1.9343E-03  2.3939E-04
 -2.3253E-03  1.4399E-03  3.2620E-04
 -1.2017E-03  1.2169E-03  2.7786E-04
 -5.3127E-04  1.0952E-03  3.3554E-04
  6.3089E-04  1.2367E-03  2.4758E-04
  1.2722E-03  1.2909E-03  2.9826E-04
  2.5190E-03  1.6051E-03  2.3155E-04
  3.6439E-03  2.0409E-03  2.7026E-04
  4.6607E-03  2.7947E-03  1.7734E-04
  5.3249E-03  3.6664E-03  1.7703E-04
  5.7603E-03  4.8863E-03  2.7948E-05
  5.4771E-03  6.1338E-03 -1.8630E-05
  4.7858E-03  7.5345E-03 -2.4361E-04
  3.1244E-03  8.6236E-03 -3.4457E-04
  1.0066E-03  9.3446E-03 -6.4051E-04
 -1.5365E-03  9.1587E-03 -6.3324E-04
 -3.8867E-03  8.3761E-03 -6.3066E-04
 -5.2345E-03  6.8551E-03 -3.6325E-04
 -6.0031E-03  5.4757E-03 -1.9387E-04
 -5.7111E-03  3.9968E-03  7.4533E-05
 -5.0695E-03  2.9934E-03  1.3394E-04
 -3.9605E-03  2.1247E-03  2.7025E-04
 -2.7405E-03  1.6362E-03  2.5512E-04
 -1.3840E-03  1.2862E-03  3.2620E-04
 -6.8562E-04  1.2250E-03  2.7669E-04
  6.6175E-04  1.1511E-03  3.0757E-04
  1.4720E-03  1.2874E-03  2.4349E-04
  2.9078E-03  1.5517E-03  2.7959E-04
  4.3074E-03  2.1407E-03  1.9599E-04
  5.5068E-03  2.8792E-03  1.9567E-04
  6.5611E-03  4.0637E-03  4.5418E-05
  7.0561E-03  5.3840E-03 -2.7945E-05
  7.1561E-03  7.1556E-03 -2.8930E-04
  6.0899E-03  8.8276E-03 -4.6559E-04
  4.3583E-03  1.0442E-02 -9.2554E-04
  1.2243E-03  1.1177E-02 -1.2382E-03
 -2.2795E-03  1.0927E-02 -1.4538E-03
 -5.1257E-03  9.3668E-03 -1.2570E-03
 -7.1493E-03  7.6050E-03 -8.6692E-04
 -7.4605E-03  5.5931E-03 -4.1913E-04
 -7.1515E-03  4.1641E-03 -1.3741E-04
 -6.0096E-03  2.8837E-03  1.3044E-04
 -4.6944E-03  2.1057E-03  1.8666E-04
 -3.1639E-03  1.4911E-03  3.0753E-04
 -1.5972E-03  1.2191E-03  2.6853E-04
 -7.2696E-04  1.0811E-03  3.3552E-04
  8.2134E-04  9.3784E-04  2.4582E-04
  1.6729E-03  9.9724E-04  2.9824E-04
  3.3454E-03  1.3446E-03  2.1813E-04
  4.9714E-03  1.8311E-03  2.4228E-04
  6.5445E-03  2.7349E-03  9.6957E-05
  7.8297E-03  3.8287E-03  2.7947E-05
  8.8670E-03  5.5443E-03 -2.5118E-04
  8.9206E-03  7.3888E-03 -4.8421E-04
  8.2607E-03  9.8055E-03 -1.0206E-03
  5.4732E-03  1.1696E-02 -1.4893E-03
  1.5217E-03  1.2717E-02 -2.1843E-03
 -3.3461E-03  1.1862E-02 -2.3362E-03
 -7.4700E-03  9.7524E-03 -1.8050E-03
 -9.0081E-03  7.1879E-03 -1.1452E-03
 -9.4458E-03  5.2166E-03 -5.8758E-04
 -8.4206E-03  3.5536E-03 -1.4904E-04
 -7.0678E-03  2.4933E-03  3.3190E-05
 -5.3531E-03  1.6446E-03  2.3295E-04
 -3.5930E-03  1.1864E-03  2.3763E-04
 -1.7940E-03  8.6206E-04  3.2618E-04
 -8.8130E-04  8.0557E-04  2.7668E-04
  8.5744E-04  4.7066E-04  2.9824E-04
  1.8596E-03  5.8220E-04  2.3562E-04
  3.7416E-03  8.0145E-04  2.7026E-04
  5.6401E-03  1.3165E-03  1.5753E-04
  7.5046E-03  1.9984E-03  1.2112E-04
  9.2991E-03  3.2229E-03 -1.4089E-04
  1.0616E-02  4.6702E-03 -3.7250E-04
  1.1496E-02  7.0754E-03 -9.5108E-04
  1.0397E-02  9.5123E-03 -1.5730E-03
  7.7183E-03  1.2680E-02 -2.6422E-03
  1.3910E-03  1.4031E-02 -3.2007E-03
 -5.6131E-03  1.2568E-02 -2.9351E-03
 -9.7999E-03  9.3625E-03 -2.0568E-03
 -1.1826E-02  6.4172E-03 -1.1674E-03
 -1.1095E-02  4.0739E-03 -4.5628E-04
 -9.8051E-03  2.6618E-03 -1.6911E-04
 -7.9187E-03  1.6117E-03  1.2111E-04
 -5.9516E-03  1.0139E-03  1.7587E-04
 -3.9465E-03  5.7776E-04  3.0752E-04
 -1.9614E-03  3.8763E-04  2.6589E-04
 -9.1332E-04  2.9357E-04  3.2619E-04
  9.7452E-04 -1.0077E-04  2.4407E-04
  2.0037E-03 -6.9898E-05  2.9823E-04
  4.0360E-03  1.1561E-04  2.0648E-04
  6.1685E-03  3.9135E-04  2.1431E-04
  8.3463E-03  9.6424E-04  4.0759E-06
  1.0502E-02  1.7045E-03 -1.6766E-04
  1.2558E-02  3.1482E-03 -7.1030E-04
  1.3763E-02  4.7986E-03 -1.3498E-03
  1.4141E-02  8.0682E-03 -2.6460E-03
  9.9911E-03  1.1321E-02 -4.3629E-03
  2.1735E-03  1.5625E-02 -4.8063E-03
 -8.0135E-03  1.5078E-02 -3.2463E-03
 -1.4602E-02  8.8752E-03 -1.9833E-03
 -1.4297E-02  4.5655E-03 -1.0332E-03
 -1.3057E-02  2.6103E-03 -4.9785E-04
 -1.0883E-02  1.2201E-03 -2.7941E-05
 -8.6303E-03  5.5051E-04  8.5298E-05
 -6.3871E-03  8.8516E-05  2.6089E-04
 -4.1870E-03 -1.3279E-04  2.4811E-04
 -2.0782E-03 -2.7492E-04  3.2618E-04
 -1.0112E-03 -3.0056E-04  2.7959E-04
  9.5064E-04 -8.0618E-04  3.0756E-04
  2.0585E-03 -7.9626E-04  2.3591E-04
  4.2029E-03 -7.6883E-04  2.7025E-04
  6.4180E-03 -6.9040E-04  1.3482E-04
  8.8178E-03 -5.6829E-04  5.5897E-05
  1.1298E-02 -2.5002E-04 -3.4084E-04
  1.3711E-02  1.8157E-04 -8.1939E-04
  1.5967E-02  1.2490E-03 -1.9046E-03
  1.6920E-02  2.5633E-03 -3.4333E-03
  1.6281E-02  7.0041E-03 -5.5131E-03
  5.1461E-03  1.3686E-02 -7.3821E-03
 -1.3801E-02  1.0051E-02 -3.0852E-03
 -2.0313E-02  3.9166E-03 -2.1862E-03
 -1.7222E-02  1.5304E-03 -1.3164E-03
 -1.4441E-02 -1.8621E-05 -4.2829E-04
 -1.1640E-02 -5.2069E-04 -1.2195E-04
 -9.0503E-03 -8.3377E-04  1.8632E-04
 -6.5756E-03 -9.3030E-04  2.0411E-04
 -4.3099E-03 -9.7847E-04  3.1684E-04
 -2.1179E-03 -9.9136E-04  2.7959E-04
 -9.7857E-04 -9.9721E-04  3.5415E-04
  9.8446E-04 -1.5192E-03  2.4582E-04
  2.0411E-03 -1.5425E-03  2.9824E-04
  4.1244E-03 -1.6752E-03  2.1143E-04
  6.3690E-03 -1.8590E-03  2.1432E-04
  8.7194E-03 -2.1961E-03 -9.0254E-06
  1.1252E-02 -2.5801E-03 -2.1423E-04
  1.3810E-02 -3.2247E-03 -9.1603E-04
  1.6145E-02 -3.8629E-03 -1.8058E-03
  1.8356E-02 -4.8810E-03 -3.4098E-03
  2.1116E-02 -5.0918E-03 -5.6544E-03
  6.2442E-03 -4.1807E-03 -2.8997E-03
 -1.7781E-02 -2.0268E-03 -4.1465E-03
 -2.2845E-02 -3.8816E-03 -1.9769E-03
 -1.8233E-02 -3.7323E-03 -1.2006E-03
 -1.4646E-02 -3.2193E-03 -5.5691E-04
 -1.1698E-02 -2.6731E-03 -2.7942E-05
 -8.9482E-03 -2.3139E-03  1.0073E-04
 -6.5319E-03 -2.0127E-03  2.8886E-04
 -4.2297E-03 -1.8394E-03  2.6094E-04
 -2.0970E-03 -1.7148E-03  3.4483E-04
 -1.0165E-03 -1.6910E-03  2.8601E-04
  8.7615E-04 -2.1298E-03  3.0758E-04
  1.9104E-03 -2.2349E-03  2.4029E-04
  3.8864E-03 -2.4418E-03  2.8892E-04
  5.9206E-03 -2.9299E-03  1.6803E-04
  8.0967E-03 -3.5545E-03  1.3976E-04
  1.0323E-02 -4.7074E-03 -1.8601E-04
  1.2428E-02 -6.0253E-03 -5.4013E-04
  1.4320E-02 -8.4654E-03 -1.2760E-03
  1.5690E-02 -1.0870E-02 -1.9729E-03
  1.6894E-02 -1.6093E-02 -2.9960E-03
  8.2109E-03 -2.0616E-02 -3.9427E-03
 -1.3881E-02 -1.7492E-02 -2.2085E-04
 -2.2020E-02 -1.1519E-02 -1.1166E-04
 -1.6153E-02 -8.6496E-03 -5.4689E-04
 -1.3381E-02 -6.0622E-03 -2.3280E-04
 -1.0755E-02 -4.7240E-03 -4.8611E-05
 -8.3898E-03 -3.6382E-03  1.8634E-04
 -6.1106E-03 -3.0396E-03  2.1433E-04
 -4.0121E-03 -2.5862E-03  3.2619E-04
 -1.9721E-03 -2.3869E-03  2.8106E-04
 -9.1341E-04 -2.2835E-03  3.3554E-04
  8.3833E-04 -2.6420E-03  2.4527E-04
  1.7291E-03 -2.7078E-03  2.9827E-04
  3.4696E-03 -3.0763E-03  2.3126E-04
  5.2562E-03 -3.6020E-03  2.6095E-04
  7.0614E-03 -4.6061E-03  1.2871E-04
  8.7807E-03 -5.8274E-03  6.5215E-05
  1.0361E-02 -7.9311E-03 -2.5207E-04
  1.1300E-02 -1.0210E-02 -4.7490E-04
  1.1787E-02 -1.4071E-02 -8.4190E-04
  1.1368E-02 -1.7929E-02 -7.9106E-04
  4.2974E-03 -2.3739E-02 -8.9436E-04
 -8.6861E-03 -2.4560E-02 -9.9562E-04
 -1.4443E-02 -1.6162E-02 -2.7953E-04
 -1.2775E-02 -1.0670E-02 -1.7691E-04
 -1.1110E-02 -8.0709E-03 -9.8958E-05
 -9.2740E-03 -5.9250E-03  1.1179E-04
 -7.3806E-03 -4.7075E-03  1.5811E-04
 -5.4797E-03 -3.7324E-03  2.8890E-04
 -3.6101E-03 -3.2152E-03  2.6475E-04
 -1.7943E-03 -2.8522E-03  3.4487E-04
 -8.7152E-04 -2.7882E-03  2.8429E-04
  6.7117E-04 -2.8805E-03  2.9830E-04
  1.4970E-03 -3.0398E-03  2.3916E-04
  2.9921E-03 -3.3510E-03  2.8896E-04
  4.4712E-03 -4.0436E-03  2.1990E-04
  5.8711E-03 -4.9299E-03  2.4230E-04
  7.1791E-03 -6.3999E-03  1.1443E-04
  8.0444E-03 -8.1003E-03  7.4528E-05
  8.5720E-03 -1.0636E-02 -1.2225E-04
  7.9713E-03 -1.3265E-02 -1.3968E-04
  6.6481E-03 -1.6995E-02 -1.8359E-04
  1.5826E-03 -2.0947E-02 -8.3786E-05
 -4.8112E-03 -1.9200E-02 -5.2339E-04
 -8.1290E-03 -1.4810E-02 -2.9797E-04
 -9.3336E-03 -1.1308E-02 -1.0507E-04
 -8.6355E-03 -8.4120E-03  7.4524E-05
 -7.6170E-03 -6.6119E-03  1.2578E-04
 -6.1971E-03 -5.0975E-03  2.6093E-04
 -4.6985E-03 -4.2028E-03  2.4349E-04
 -3.1319E-03 -3.5047E-03  3.2624E-04
 -1.5651E-03 -3.1918E-03  2.7761E-04
 -7.0845E-04 -3.0342E-03  3.3558E-04
  6.1470E-04 -2.9861E-03  2.4064E-04
  1.2585E-03 -3.0577E-03  2.8899E-04
  2.5050E-03 -3.4506E-03  2.3567E-04
  3.6772E-03 -4.0035E-03  2.7964E-04
  4.7863E-03 -4.9511E-03  2.0825E-04
  5.6101E-03 -6.0947E-03  2.3298E-04
  6.2264E-03 -7.7324E-03  1.3191E-04
  6.1349E-03 -9.5074E-03  1.3975E-04
  5.5961E-03 -1.1667E-02  2.4452E-05
  3.6884E-03 -1.3734E-02  3.7256E-05
  9.3047E-04 -1.4978E-02 -1.2078E-04
 -2.5519E-03 -1.4846E-02 -9.3137E-05
 -5.4205E-03 -1.2647E-02 -1.1701E-04
 -6.3768E-03 -1.0173E-02  2.7948E-05
 -6.6349E-03 -8.1705E-03  1.0104E-04
 -5.9594E-03 -6.3881E-03  2.3297E-04
 -5.0666E-03 -5.1808E-03  2.2892E-04
 -3.8869E-03 -4.1805E-03  3.0760E-04
 -2.6392E-03 -3.6128E-03  2.6625E-04
 -1.3238E-03 -3.2115E-03  3.2628E-04
 -6.4733E-04 -3.1352E-03  2.7326E-04
  4.4751E-04 -2.8016E-03  2.8902E-04
  1.0456E-03 -2.9371E-03  2.3279E-04
  2.0463E-03 -3.2070E-03  2.8900E-04
  3.0055E-03 -3.7688E-03  2.2635E-04
  3.7798E-03 -4.4789E-03  2.7032E-04
  4.4197E-03 -5.5247E-03  2.0680E-04
  4.6318E-03 -6.6960E-03  2.4231E-04
  4.5666E-03 -8.1227E-03  1.5725E-04
  3.7456E-03 -9.5457E-03  1.8635E-04
  2.5120E-03 -1.0771E-02  8.1522E-05
  4.7048E-04 -1.1604E-02  1.2111E-04
 -1.7396E-03 -1.1268E-02  5.5317E-06
 -3.4567E-03 -1.0230E-02  9.3171E-05
 -4.6620E-03 -8.7142E-03  9.9587E-05
 -4.8506E-03 -7.1291E-03  2.2366E-04
 -4.6779E-03 -5.8528E-03  2.1407E-04
 -3.9895E-03 -4.7212E-03  2.9828E-04
 -3.1724E-03 -3.9624E-03  2.5985E-04
 -2.1628E-03 -3.3608E-03  3.1697E-04
 -1.1016E-03 -3.0798E-03  2.6250E-04
 -4.7548E-04 -2.9368E-03  3.1698E-04
  4.1782E-04 -2.4970E-03  2.2785E-04
  8.5312E-04 -2.5500E-03  2.7971E-04
  1.6846E-03 -2.8297E-03  2.2551E-04
  2.4053E-03 -3.2211E-03  2.7969E-04
  3.0365E-03 -3.8527E-03  2.2228E-04
  3.3931E-03 -4.5862E-03  2.7033E-04
  3.5804E-03 -5.5203E-03  2.0797E-04
  3.2853E-03 -6.4961E-03  2.4232E-04
  2.7405E-03 -7.4567E-03  1.7183E-04
  1.6308E-03 -8.2845E-03  2.1433E-04
  2.9528E-04 -8.6401E-03  1.3454E-04
 -1.1788E-03 -8.5919E-03  2.0501E-04
 -2.5203E-03 -7.9038E-03  1.4445E-04
 -3.2759E-03 -6.9433E-03  2.4232E-04
 -3.7082E-03 -5.8962E-03  2.1467E-04
 -3.5515E-03 -4.8704E-03  2.8896E-04
 -3.1929E-03 -4.0779E-03  2.5228E-04
 -2.5265E-03 -3.3982E-03  3.0765E-04
 -1.7741E-03 -2.9768E-03  2.5727E-04
 -8.9973E-04 -2.6759E-03  3.0768E-04
 -4.3821E-04 -2.6200E-03  2.5640E-04
  2.8905E-04 -1.9861E-03  2.7040E-04
  7.1563E-04 -2.0706E-03  2.1912E-04
  1.3753E-03 -2.2377E-03  2.7039E-04
  1.9842E-03 -2.5727E-03  2.2085E-04
  2.4147E-03 -2.9927E-03  2.7037E-04
  2.7277E-03 -3.5580E-03  2.2170E-04
  2.7220E-03 -4.1809E-03  2.7033E-04
  2.5430E-03 -4.8535E-03  2.1264E-04
  1.9574E-03 -5.4946E-03  2.6098E-04
  1.1933E-03 -5.9636E-03  1.9486E-04
  1.6310E-04 -6.2539E-03  2.5165E-04
 -9.0903E-04 -6.1348E-03  1.9311E-04
 -1.8082E-03 -5.7835E-03  2.6098E-04
 -2.5208E-03 -5.1540E-03  2.1963E-04
 -2.7779E-03 -4.4511E-03  2.9830E-04
 -2.8317E-03 -3.7808E-03  2.4996E-04
 -2.5172E-03 -3.1652E-03  3.0766E-04
 -2.0756E-03 -2.7143E-03  2.5348E-04
 -1.4405E-03 -2.3543E-03  2.9836E-04
 -7.5001E-04 -2.1737E-03  2.4942E-04
 -3.0770E-04 -2.0840E-03  2.9838E-04
  2.9373E-04 -1.4034E-03  2.1447E-04
  6.0144E-04 -1.4313E-03  2.6109E-04
  1.1833E-03 -1.5691E-03  2.1417E-04
  1.6504E-03 -1.7622E-03  2.7040E-04
  2.0398E-03 -2.0597E-03  2.2056E-04
  2.2049E-03 -2.4007E-03  2.7970E-04
  2.2421E-03 -2.8067E-03  2.2316E-04
  1.9716E-03 -3.2208E-03  2.7967E-04
  1.5562E-03 -3.5924E-03  2.2023E-04
  8.7156E-04 -3.9011E-03  2.7965E-04
  1.0137E-04 -4.0175E-03  2.1847E-04
 -7.0843E-04 -4.0036E-03  2.8897E-04
 -1.4556E-03 -3.7511E-03  2.2984E-04
 -1.9437E-03 -3.4026E-03  2.9831E-04
 -2.2773E-03 -2.9765E-03  2.4676E-04
 -2.2655E-03 -2.5499E-03  2.9834E-04
 -2.1141E-03 -2.1800E-03  2.4882E-04
 -1.7156E-03 -1.8601E-03  2.9837E-04
 -1.2334E-03 -1.6501E-03  2.4447E-04
 -6.2941E-04 -1.5013E-03  2.9839E-04
 -3.0480E-04 -1.4704E-03  2.4302E-04
  2.0515E-04 -7.1335E-04  2.6110E-04
  5.4987E-04 -7.3987E-04  2.1127E-04
  1.0444E-03 -7.9259E-04  2.7041E-04
  1.4875E-03 -9.0592E-04  2.1592E-04
  1.7762E-03 -1.0396E-03  2.7040E-04
  1.9632E-03 -1.2156E-03  2.2377E-04
  1.9019E-03 -1.4031E-03  2.7969E-04
  1.7206E-03 -1.6018E-03  2.2899E-04
  1.2772E-03 -1.7852E-03  2.8899E-04
  7.3500E-04 -1.9090E-03  2.2868E-04
  6.0593E-05 -1.9856E-03  2.8898E-04
 -6.2342E-04 -1.9512E-03  2.3713E-04
 -1.2072E-03 -1.8551E-03  3.0764E-04
 -1.6999E-03 -1.6842E-03  2.4734E-04
 -1.9252E-03 -1.4870E-03  3.0766E-04
 -2.0107E-03 -1.2864E-03  2.4737E-04
 -1.8275E-03 -1.1002E-03  2.9837E-04
 -1.5406E-03 -9.5429E-04  2.4389E-04
 -1.0817E-03 -8.3455E-04  2.9839E-04
 -5.7027E-04 -7.7542E-04  2.4099E-04
 -2.1447E-04 -7.4599E-04  2.8907E-04
  2.5177E-04 -3.4502E-04  2.0981E-04
  5.2219E-04 -2.9840E-04  2.6110E-04
  1.0164E-03 -3.8698E-04  2.1447E-04
  1.4033E-03 -3.8230E-04  2.7041E-04
  1.7250E-03 -5.0933E-04  2.1795E-04
  1.8414E-03 -5.4078E-04  2.7971E-04
  1.8419E-03 -6.8701E-04  2.2900E-04
  1.5896E-03 -7.2719E-04  2.8901E-04
  1.2306E-03 -8.6933E-04  2.3073E-04
  6.7121E-04 -8.7630E-04  2.8899E-04
  5.3021E-05 -9.5379E-04  2.3247E-04
 -5.7799E-04 -8.9495E-04  2.9832E-04
 -1.1694E-03 -8.9788E-04  2.4647E-04
 -1.5756E-03 -7.7380E-04  2.9833E-04
 -1.8612E-03 -7.2605E-04  2.4823E-04
 -1.8787E-03 -5.6874E-04  2.9836E-04
 -1.7751E-03 -5.3497E-04  2.4359E-04
 -1.4500E-03 -4.0095E-04  2.9838E-04
 -1.0537E-03 -4.0563E-04  2.4244E-04
 -5.4084E-04 -3.1705E-04  2.8907E-04
 -2.5877E-04 -3.6134E-04  2.3546E-04
  3.7834E-04  1.5134E-04  4.6347E-04
  8.9146E-04  2.2227E-04  4.6346E-04
  1.7072E-03  1.9862E-04  4.6345E-04
  2.4537E-03  3.3575E-04  4.5870E-04
  2.9648E-03  3.7828E-04  4.5394E-04
  3.3280E-03  5.6147E-04  4.3736E-04
  3.3000E-03  6.5244E-04  4.2550E-04
  3.0725E-03  8.6837E-04  3.9681E-04
  2.3919E-03  9.6433E-04  3.9235E-04
  1.5271E-03  1.1436E-03  3.6427E-04
  3.8760E-04  1.1628E-03  3.7814E-04
 -8.0031E-04  1.2098E-03  3.7194E-04
 -1.8435E-03  1.0777E-03  4.2070E-04
 -2.7187E-03  9.9272E-04  4.3313E-04
 -3.1296E-03  7.6586E-04  4.7748E-04
 -3.3051E-03  6.5275E-04  4.9436E-04
 -3.0166E-03  4.3500E-04  5.2011E-04
 -2.5472E-03  3.7918E-04  5.2694E-04
 -1.7828E-03  2.3644E-04  5.3436E-04
 -9.3930E-04  2.4295E-04  5.3556E-04
 -4.0670E-04  1.7025E-04  5.3438E-04
  4.4898E-04  4.4307E-04  4.6435E-04
  9.0800E-04  4.5873E-04  4.6346E-04
  1.7852E-03  5.5448E-04  4.6049E-04
  2.5063E-03  6.8095E-04  4.5869E-04
  3.1205E-03  8.9221E-04  4.4389E-04
  3.4137E-03  1.1300E-03  4.3026E-04
  3.5162E-03  1.4402E-03  3.9772E-04
  3.1673E-03  1.7491E-03  3.7819E-04
  2.5922E-03  2.0672E-03  3.3769E-04
  1.5882E-03  2.3256E-03  3.3087E-04
  4.3663E-04  2.4715E-03  2.9542E-04
 -8.2244E-04  2.4768E-03  3.3087E-04
 -2.0045E-03  2.3049E-03  3.4181E-04
 -2.8126E-03  2.0185E-03  4.0653E-04
 -3.3772E-03  1.6747E-03  4.3315E-04
 -3.4041E-03  1.3096E-03  4.8224E-04
 -3.2078E-03  1.0183E-03  5.0149E-04
 -2.6102E-03  7.6130E-04  5.2487E-04
 -1.8785E-03  6.0352E-04  5.2963E-04
 -9.5998E-04  4.8708E-04  5.3437E-04
 -4.7645E-04  4.6936E-04  5.3438E-04
  4.2563E-04  8.1342E-04  4.6819E-04
  1.0020E-03  8.8848E-04  4.6345E-04
  1.9294E-03  1.0309E-03  4.5871E-04
  2.7896E-03  1.3270E-03  4.4479E-04
  3.4139E-03  1.6927E-03  4.2555E-04
  3.8822E-03  2.2212E-03  3.8444E-04
  3.9191E-03  2.7939E-03  3.4511E-04
  3.7199E-03  3.4720E-03  2.7446E-04
  2.9683E-03  4.0980E-03  2.2688E-04
  1.9615E-03  4.6543E-03  1.3411E-04
  5.3879E-04  4.9862E-03  1.1343E-04
 -9.7745E-04  4.9800E-03  7.3257E-05
 -2.3018E-03  4.6225E-03  1.7961E-04
 -3.3853E-03  4.0166E-03  2.2836E-04
 -3.8385E-03  3.2618E-03  3.4508E-04
 -3.9783E-03  2.5712E-03  4.0126E-04
 -3.5650E-03  1.9149E-03  4.7281E-04
 -2.9603E-03  1.4667E-03  5.0062E-04
 -2.0570E-03  1.1018E-03  5.2489E-04
 -1.0699E-03  9.3484E-04  5.3171E-04
 -4.6344E-04  8.4648E-04  5.3437E-04
  5.5655E-04  1.1187E-03  4.6434E-04
  1.1255E-03  1.1681E-03  4.6344E-04
  2.2175E-03  1.4278E-03  4.4924E-04
  3.1681E-03  1.7921E-03  4.3029E-04
  4.0148E-03  2.4019E-03  3.8357E-04
  4.5149E-03  3.1060E-03  3.2621E-04
  4.7936E-03  4.0615E-03  2.2040E-04
  4.4713E-03  5.0338E-03  1.2289E-04
  3.8311E-03  6.0881E-03 -4.4012E-05
  2.4763E-03  6.9516E-03 -1.7013E-04
  7.9950E-04  7.5272E-03 -3.8129E-04
 -1.1861E-03  7.5231E-03 -3.7804E-04
 -3.0387E-03  6.9369E-03 -3.1486E-04
 -4.1733E-03  5.8794E-03 -6.6167E-05
 -4.8836E-03  4.7530E-03  7.2674E-05
 -4.7509E-03  3.5549E-03  2.7891E-04
 -4.3132E-03  2.6869E-03  3.8295E-04
 -3.4232E-03  1.9386E-03  4.7282E-04
 -2.3989E-03  1.5105E-03  5.0714E-04
 -1.2153E-03  1.2058E-03  5.2962E-04
 -6.0086E-04  1.1488E-03  5.3052E-04
  5.8639E-04  1.2201E-03  4.6343E-04
  1.3049E-03  1.3462E-03  4.5988E-04
  2.5535E-03  1.5935E-03  4.4449E-04
  3.7531E-03  2.1339E-03  4.0043E-04
  4.7278E-03  2.8130E-03  3.4040E-04
  5.5489E-03  3.8456E-03  2.1479E-04
  5.8468E-03  4.9913E-03  6.6172E-05
  5.8049E-03  6.4577E-03 -1.7072E-04
  4.8860E-03  7.8440E-03 -4.0165E-04
  3.5014E-03  9.1774E-03 -8.1060E-04
  1.1103E-03  9.9830E-03 -1.1575E-03
 -1.6270E-03  1.0055E-02 -1.4313E-03
 -3.9453E-03  8.9584E-03 -1.0867E-03
 -5.6930E-03  7.5965E-03 -8.6210E-04
 -6.1629E-03  5.6903E-03 -3.2138E-04
 -6.0586E-03  4.3014E-03  1.1226E-05
 -5.1813E-03  3.0209E-03  2.8838E-04
 -4.1110E-03  2.2405E-03  4.1311E-04
 -2.7897E-03  1.6218E-03  4.9648E-04
 -1.4201E-03  1.3488E-03  5.2044E-04
 -6.4310E-04  1.2058E-03  5.2961E-04
  7.3503E-04  1.2044E-03  4.6549E-04
  1.4990E-03  1.2673E-03  4.6341E-04
  2.9857E-03  1.6263E-03  4.2852E-04
  4.3876E-03  2.1323E-03  3.7824E-04
  5.7070E-03  3.0312E-03  2.6297E-04
  6.6931E-03  4.1123E-03  1.0399E-04
  7.4375E-03  5.6957E-03 -1.8343E-04
  7.3240E-03  7.3854E-03 -5.1504E-04
  6.6702E-03  9.4097E-03 -1.0464E-03
  4.6150E-03  1.1096E-02 -1.6108E-03
  1.7131E-03  1.2287E-02 -2.6634E-03
 -2.2105E-03  1.1832E-02 -3.2024E-03
 -5.7279E-03  1.0469E-02 -2.7351E-03
 -7.4412E-03  7.9514E-03 -2.1402E-03
 -8.1999E-03  6.0554E-03 -9.9205E-04
 -7.4204E-03  4.2254E-03 -2.5522E-04
 -6.3140E-03  3.0632E-03  1.3620E-04
 -4.8223E-03  2.0944E-03  3.7822E-04
 -3.2560E-03  1.5695E-03  4.6957E-04
 -1.6313E-03  1.1963E-03  5.2013E-04
 -8.0356E-04  1.1322E-03  5.2694E-04
  7.8496E-04  9.1736E-04  4.6814E-04
  1.7109E-03  1.0539E-03  4.5719E-04
  3.4185E-03  1.3239E-03  4.2555E-04
  5.1173E-03  1.9363E-03  3.4070E-04
  6.7078E-03  2.7323E-03  2.0799E-04
  8.1851E-03  4.0800E-03 -6.7645E-05
  9.1199E-03  5.6562E-03 -4.2528E-04
  9.6216E-03  7.9684E-03 -1.0621E-03
  8.5963E-03  1.0334E-02 -1.7618E-03
  6.6098E-03  1.2729E-02 -3.1203E-03
  1.8462E-03  1.3873E-02 -4.8257E-03
 -3.7374E-03  1.3031E-02 -5.0191E-03
 -7.8254E-03  1.0196E-02 -4.4912E-03
 -1.0229E-02  7.4389E-03 -2.4761E-03
 -9.8891E-03  5.2068E-03 -1.2379E-03
 -8.9668E-03  3.6968E-03 -4.1352E-04
 -7.3124E-03  2.4674E-03  9.4536E-05
 -5.5436E-03  1.7279E-03  3.3506E-04
 -3.6879E-03  1.1631E-03  4.7280E-04
 -1.8379E-03  9.1110E-04  5.1480E-04
 -8.5112E-04  7.8492E-04  5.3432E-04
  9.2739E-04  5.0596E-04  4.6931E-04
  1.9056E-03  5.5796E-04  4.6339E-04
  3.8274E-03  8.5787E-04  4.1105E-04
  5.7961E-03  1.2906E-03  3.2621E-04
  7.7754E-03  2.1537E-03  1.0960E-04
  9.6172E-03  3.2420E-03 -2.0321E-04
  1.1284E-02  5.1473E-03 -8.3628E-04
  1.2002E-02  7.3449E-03 -1.6201E-03
  1.1835E-02  1.0859E-02 -3.1998E-03
  8.1529E-03  1.4002E-02 -4.6453E-03
  2.0778E-03  1.5339E-02 -6.7145E-03
 -5.8864E-03  1.3467E-02 -7.3167E-03
 -1.1765E-02  9.5381E-03 -4.3707E-03
 -1.2431E-02  6.3051E-03 -2.0167E-03
 -1.1893E-02  4.1116E-03 -1.0104E-03
 -1.0160E-02  2.5660E-03 -2.6463E-04
 -8.2228E-03  1.6511E-03  1.1935E-04
 -6.1267E-03  9.7384E-04  3.6873E-04
 -4.0400E-03  6.1050E-04  4.6984E-04
 -2.0095E-03  3.6408E-04  5.2484E-04
 -9.8203E-04  3.2005E-04  5.3342E-04
  9.4571E-04 -1.2294E-04  4.7758E-04
  2.0415E-03 -5.1422E-05  4.5925E-04
  4.1513E-03  8.9834E-05  4.1607E-04
  6.3334E-03  4.4705E-04  2.8602E-04
  8.6593E-03  9.4061E-04  7.0900E-05
  1.1019E-02  1.9517E-03 -4.5543E-04
  1.3223E-02  3.2219E-03 -1.2094E-03
  1.5195E-02  5.7525E-03 -2.7934E-03
  1.5253E-02  8.5684E-03 -5.0514E-03
  1.2407E-02  1.4303E-02 -7.9262E-03
  1.3117E-03  1.8180E-02 -9.8708E-03
 -1.0608E-02  1.4080E-02 -7.0935E-03
 -1.4988E-02  8.4544E-03 -3.9511E-03
 -1.5669E-02  5.0396E-03 -2.1177E-03
 -1.3629E-02  2.4706E-03 -6.4718E-04
 -1.1314E-02  1.2735E-03 -1.5298E-04
 -8.9046E-03  4.8210E-04  2.3632E-04
 -6.5364E-03  1.0046E-04  3.9089E-04
 -4.2977E-03 -1.6075E-04  4.9643E-04
 -2.1159E-03 -2.7247E-04  5.3075E-04
 -9.8350E-04 -3.2626E-04  5.4849E-04
  1.0220E-03 -8.1628E-04  4.7404E-04
  2.1184E-03 -8.1330E-04  4.6812E-04
  4.2825E-03 -7.7689E-04  4.0751E-04
  6.6469E-03 -7.1386E-04  3.0256E-04
  9.1402E-03 -5.4534E-04 -1.4180E-05
  1.1899E-02 -2.7880E-04 -5.5761E-04
  1.4716E-02  4.3904E-04 -1.7753E-03
  1.7349E-02  1.2844E-03 -3.6219E-03
  1.9841E-02  3.6212E-03 -7.0584E-03
  1.7763E-02  6.6851E-03 -1.2988E-02
  2.6116E-03  1.0725E-02 -9.2166E-03
 -1.5610E-02  1.1142E-02 -6.3872E-03
 -2.1043E-02  4.6391E-03 -3.8757E-03
 -1.8415E-02  1.3316E-03 -2.3420E-03
 -1.5224E-02  2.2379E-04 -9.5390E-04
 -1.2149E-02 -5.8593E-04 -3.3077E-05
 -9.2719E-03 -8.2891E-04  2.4075E-04
 -6.7696E-03 -9.6438E-04  4.3492E-04
 -4.3846E-03 -9.9583E-04  5.0176E-04
 -2.1750E-03 -1.0119E-03  5.4849E-04
 -1.0524E-03 -1.0128E-03  5.5175E-04
  9.5521E-04 -1.5274E-03  4.7760E-04
  2.0720E-03 -1.5811E-03  4.6075E-04
  4.2507E-03 -1.6880E-03  4.2554E-04
  6.5224E-03 -1.9268E-03  2.9637E-04
  9.0944E-03 -2.2311E-03  7.0902E-05
  1.1851E-02 -2.7630E-03 -5.8864E-04
  1.4787E-02 -3.3305E-03 -1.7668E-03
  1.7668E-02 -4.3310E-03 -3.8384E-03
  2.0656E-02 -5.4943E-03 -7.1181E-03
  1.9498E-02 -7.3054E-03 -8.2758E-03
  5.7675E-03 -5.3195E-03 -6.8145E-03
 -1.7445E-02 -5.0006E-03 -3.4017E-03
 -2.4802E-02 -4.9698E-03 -3.0111E-03
 -1.8696E-02 -4.2976E-03 -1.8250E-03
 -1.5546E-02 -3.3162E-03 -1.0629E-03
 -1.2124E-02 -2.7487E-03 -1.9758E-04
 -9.2831E-03 -2.3302E-03  2.7415E-04
 -6.6546E-03 -2.0630E-03  4.2311E-04
 -4.3452E-03 -1.8534E-03  5.1537E-04
 -2.1258E-03 -1.7525E-03  5.4230E-04
 -9.8355E-04 -1.6976E-03  5.5325E-04
  9.4756E-04 -2.1877E-03  4.7230E-04
  1.9577E-03 -2.2367E-03  4.6816E-04
  3.9554E-03 -2.5262E-03  4.2911E-04
  6.1038E-03 -2.9408E-03  3.5932E-04
  8.3482E-03 -3.7607E-03  1.3975E-04
  1.0799E-02 -4.7828E-03 -2.1740E-04
  1.3287E-02 -6.7316E-03 -1.2267E-03
  1.5185E-02 -8.8700E-03 -2.7678E-03
  1.6628E-02 -1.3289E-02 -4.0167E-03
  1.7939E-02 -1.7528E-02 -4.8091E-03
  5.3277E-03 -2.0955E-02 -2.8124E-03
 -1.5259E-02 -1.9260E-02  3.2556E-04
 -2.0612E-02 -1.3210E-02 -9.5713E-04
 -1.6761E-02 -8.8978E-03 -9.1150E-04
 -1.3751E-02 -6.6299E-03 -5.8436E-04
 -1.1163E-02 -4.7448E-03 -8.0340E-05
 -8.6117E-03 -3.7807E-03  2.4521E-04
 -6.2927E-03 -3.0400E-03  4.3969E-04
 -4.0803E-03 -2.6588E-03  5.0771E-04
 -2.0192E-03 -2.3927E-03  5.4380E-04
 -9.7473E-04 -2.3437E-03  5.4677E-04
  8.0397E-04 -2.6389E-03  4.6819E-04
  1.7539E-03 -2.7866E-03  4.6168E-04
  3.5466E-03 -3.0737E-03  4.4924E-04
  5.3720E-03 -3.7481E-03  3.8566E-04
  7.2522E-03 -4.6283E-03  2.9311E-04
  9.1311E-03 -6.2127E-03  1.5066E-05
  1.0699E-02 -8.1186E-03 -3.5915E-04
  1.1870E-02 -1.1405E-02 -1.0562E-03
  1.1996E-02 -1.4651E-02 -1.2610E-03
  1.1610E-02 -2.0223E-02 -1.7933E-03
  4.0360E-03 -2.6392E-02 -1.3123E-03
 -9.2066E-03 -2.2723E-02 -7.0988E-04
 -1.4436E-02 -1.5475E-02 -7.4614E-04
 -1.3147E-02 -1.1357E-02 -4.8332E-04
 -1.1393E-02 -8.1134E-03 -1.6066E-04
 -9.5520E-03 -6.2488E-03  8.6259E-05
 -7.5781E-03 -4.7180E-03  3.2147E-04
 -5.6026E-03 -3.8653E-03  4.4357E-04
 -3.6979E-03 -3.2155E-03  5.1543E-04
 -1.8230E-03 -2.9311E-03  5.3468E-04
 -8.3233E-04 -2.7902E-03  5.4385E-04
  7.4136E-04 -2.9619E-03  4.5995E-04
  1.5229E-03 -3.0363E-03  4.5876E-04
  3.0453E-03 -3.4526E-03  4.4573E-04
  4.5491E-03 -4.0478E-03  4.2559E-04
  6.0323E-03 -5.1260E-03  3.5373E-04
  7.3086E-03 -6.4577E-03  2.6946E-04
  8.3769E-03 -8.5560E-03  4.7266E-05
  8.6525E-03 -1.0888E-02 -8.5061E-05
  8.4025E-03 -1.4059E-02 -3.5937E-04
  6.1976E-03 -1.7346E-02 -3.3539E-04
  2.0723E-03 -2.0531E-02 -6.3144E-04
 -4.3455E-03 -2.0471E-02 -8.8327E-04
 -9.0153E-03 -1.5445E-02 -6.3541E-04
 -9.3985E-03 -1.1331E-02 -2.7407E-04
 -9.0027E-03 -8.7977E-03  2.0678E-05
 -7.7669E-03 -6.6465E-03  2.6000E-04
 -6.3699E-03 -5.3025E-03  3.8415E-04
 -4.7901E-03 -4.2085E-03  4.7759E-04
 -3.1948E-03 -3.6086E-03  5.1134E-04
 -1.5938E-03 -3.1876E-03  5.2969E-04
 -7.7622E-04 -3.1132E-03  5.3088E-04
  5.7704E-04 -2.9846E-03  4.4934E-04
  1.2836E-03 -3.1397E-03  4.4549E-04
  2.5351E-03 -3.4526E-03  4.4458E-04
  3.7642E-03 -4.1171E-03  4.2681E-04
  4.8422E-03 -4.9699E-03  4.0667E-04
  5.7914E-03 -6.3003E-03  3.4516E-04
  6.2686E-03 -7.8382E-03  2.8838E-04
  6.4163E-03 -9.8429E-03  1.6573E-04
  5.5390E-03 -1.1933E-02  9.9248E-05
  4.0341E-03 -1.4012E-02 -4.9027E-05
  9.1197E-04 -1.5659E-02 -1.7483E-04
 -2.7029E-03 -1.5017E-02 -3.7241E-04
 -5.2976E-03 -1.2996E-02 -3.8279E-04
 -6.8227E-03 -1.0550E-02 -7.2079E-05
 -6.7080E-03 -8.2538E-03  2.0327E-04
 -6.1833E-03 -6.6168E-03  3.4485E-04
 -5.1400E-03 -5.2015E-03  4.5395E-04
 -3.9778E-03 -4.3100E-03  4.8651E-04
 -2.6769E-03 -3.6134E-03  5.1079E-04
 -1.3489E-03 -3.2937E-03  5.1466E-04
 -6.0542E-04 -3.1311E-03  5.1555E-04
  5.1855E-04 -2.8706E-03  4.3341E-04
  1.0548E-03 -2.9374E-03  4.3044E-04
  2.0927E-03 -3.2864E-03  4.3161E-04
  3.0317E-03 -3.7790E-03  4.2567E-04
  3.8828E-03 -4.5984E-03  4.1470E-04
  4.4404E-03 -5.5753E-03  3.9722E-04
  4.8051E-03 -6.8702E-03  3.5344E-04
  4.5576E-03 -8.2641E-03  3.1676E-04
  3.9600E-03 -9.7435E-03  2.3607E-04
  2.4722E-03 -1.1085E-02  1.7490E-04
  5.6396E-04 -1.1748E-02  7.7696E-05
 -1.6827E-03 -1.1708E-02  9.4536E-06
 -3.6981E-03 -1.0519E-02  3.3385E-05
 -4.6567E-03 -8.9068E-03  1.8910E-04
 -5.0899E-03 -7.3546E-03  3.2033E-04
 -4.7145E-03 -5.9061E-03  4.3031E-04
 -4.1135E-03 -4.8551E-03  4.6967E-04
 -3.2019E-03 -3.9729E-03  4.9661E-04
 -2.2077E-03 -3.4481E-03  4.9960E-04
 -1.1116E-03 -3.0793E-03  5.0139E-04
 -5.4308E-04 -3.0087E-03  5.0051E-04
  3.6898E-04 -2.4977E-03  4.2102E-04
  8.7484E-04 -2.6112E-03  4.2012E-04
  1.6935E-03 -2.8335E-03  4.2100E-04
  2.4664E-03 -3.2986E-03  4.2009E-04
  3.0460E-03 -3.8784E-03  4.2095E-04
  3.5009E-03 -4.6895E-03  4.0762E-04
  3.5799E-03 -5.5944E-03  3.9724E-04