# vtk DataFile Version 3.0
model R-SWMS
ASCII
DATASET RECTILINEAR_GRID
DIMENSIONS      21    21    21
X_COORDINATES      21 float
 -5.0000E+00 -4.5000E+00 -4.0000E+00 -3.5000E+00 -3.0000E+00 -2.5000E+00 -2.0000E+00 -1.5000E+00 -1.0000E+00 -5.0000E-01  0.0000E+00  5.0000E-01  1.0000E+00  1.5000E+00  2.0000E+00  2.5000E+00  3.0000E+00  3.5000E+00  4.0000E+00  4.5000E+00  5.0000E+00
Y_COORDINATES      21 float
-5.0000E+00-4.5000E+00-4.0000E+00-3.5000E+00-3.0000E+00-2.5000E+00-2.0000E+00-1.5000E+00-1.0000E+00-5.0000E-01 0.0000E+00 5.0000E-01 1.0000E+00 1.5000E+00 2.0000E+00 2.5000E+00 3.0000E+00 3.5000E+00 4.0000E+00 4.5000E+00 5.0000E+00
Z_COORDINATES      21 float
 0.0000E+00-5.0000E-01-1.0000E+00-1.5000E+00-2.0000E+00-2.5000E+00-3.0000E+00-3.5000E+00-4.0000E+00-4.5000E+00-5.0000E+00-5.5000E+00-6.0000E+00-6.5000E+00-7.0000E+00-7.5000E+00-8.0000E+00-8.5000E+00-9.0000E+00-9.5000E+00-1.0000E+01
     POINT_DATA    9261
SCALARS velocity float 3
LOOKUP_TABLE default
  4.3133E-04  2.0506E-04  2.4749E-04
  8.7209E-04  1.6028E-04  3.0169E-04
  1.7011E-03  2.6339E-04  2.4807E-04
  2.3804E-03  2.7339E-04  2.9224E-04
  2.9600E-03  4.2891E-04  2.3567E-04
  3.2190E-03  4.9015E-04  2.8278E-04
  3.3035E-03  6.9275E-04  2.2149E-04
  2.9593E-03  7.8223E-04  2.7331E-04
  2.4013E-03  9.8067E-04  1.9496E-04
  1.4606E-03  1.0460E-03  2.4501E-04
  3.9519E-04  1.1655E-03  1.7492E-04
 -7.5386E-04  1.1025E-03  2.5443E-04
 -1.8411E-03  1.0872E-03  1.9907E-04
 -2.5963E-03  8.9528E-04  2.9215E-04
 -3.1361E-03  7.9521E-04  2.4151E-04
 -3.1811E-03  5.7495E-04  3.1104E-04
 -3.0117E-03  4.8309E-04  2.7100E-04
 -2.4651E-03  3.0166E-04  3.3936E-04
 -1.7829E-03  2.8400E-04  2.8164E-04
 -9.0976E-04  1.6970E-04  3.3939E-04
 -4.4899E-04  2.1801E-04  2.8165E-04
  3.8655E-04  4.2897E-04  3.0170E-04
  9.0921E-04  4.6315E-04  2.4984E-04
  1.7347E-03  5.3266E-04  3.0168E-04
  2.4970E-03  6.8288E-04  2.4157E-04
  3.0259E-03  8.6253E-04  2.9222E-04
  3.4039E-03  1.1170E-03  2.2268E-04
  3.3930E-03  1.3902E-03  2.7333E-04
  3.1669E-03  1.7031E-03  1.9585E-04
  2.4784E-03  1.9884E-03  2.3559E-04
  1.5984E-03  2.2351E-03  1.5313E-04
  4.1461E-04  2.3746E-03  2.1673E-04
 -8.1568E-04  2.3640E-03  1.4311E-04
 -1.8988E-03  2.2051E-03  2.3558E-04
 -2.8133E-03  1.9404E-03  1.9231E-04
 -3.2326E-03  1.5975E-03  2.8274E-04
 -3.4028E-03  1.2827E-03  2.4476E-04
 -3.0917E-03  9.7088E-04  3.2048E-04
 -2.6021E-03  7.5561E-04  2.7308E-04
 -1.8242E-03  5.7977E-04  3.2995E-04
 -9.5512E-04  4.9318E-04  2.8165E-04
 -4.0539E-04  4.4781E-04  3.2997E-04
  4.8259E-04  8.2553E-04  2.5043E-04
  9.7577E-04  8.5793E-04  3.0169E-04
  1.9182E-03  1.0326E-03  2.4364E-04
  2.7102E-03  1.2773E-03  2.9223E-04
  3.3940E-03  1.6791E-03  2.2270E-04
  3.7466E-03  2.1349E-03  2.5449E-04
  3.9030E-03  2.7349E-03  1.7671E-04
  3.5575E-03  3.3313E-03  2.0732E-04
  2.9588E-03  3.9612E-03  1.0306E-04
  1.8468E-03  4.4521E-03  1.3191E-04
  5.3559E-04  4.7491E-03  2.6205E-05
 -9.2338E-04  4.7299E-03  9.4222E-05
 -2.2912E-03  4.4048E-03  5.2119E-05
 -3.2039E-03  3.8117E-03  1.6962E-04
 -3.8194E-03  3.1585E-03  1.5520E-04
 -3.8076E-03  2.4410E-03  2.6390E-04
 -3.5432E-03  1.8913E-03  2.3947E-04
 -2.8562E-03  1.3998E-03  3.1107E-04
 -2.0418E-03  1.1097E-03  2.7544E-04
 -1.0417E-03  8.9559E-04  3.3938E-04
 -5.1321E-04  8.5731E-04  2.8106E-04
  4.9024E-04  1.0795E-03  3.0169E-04
  1.1127E-03  1.1823E-03  2.4836E-04
  2.1541E-03  1.3764E-03  2.9224E-04
  3.1399E-03  1.7913E-03  2.2477E-04
  3.8834E-03  2.3046E-03  2.6392E-04
  4.4703E-03  3.0648E-03  1.6376E-04
  4.5894E-03  3.8873E-03  1.6963E-04
  4.4302E-03  4.8884E-03  4.9175E-05
  3.5992E-03  5.8039E-03  3.7688E-05
  2.4357E-03  6.6375E-03 -1.2513E-04
  6.9243E-04  7.0798E-03 -1.3189E-04
 -1.1856E-03  7.0830E-03 -2.4229E-04
 -2.8170E-03  6.4725E-03 -9.4213E-05
 -4.1248E-03  5.6024E-03 -8.6860E-05
 -4.6032E-03  4.4430E-03  1.0365E-04
 -4.6921E-03  3.4758E-03  1.2664E-04
 -4.1329E-03  2.5401E-03  2.6391E-04
 -3.3739E-03  1.9341E-03  2.4331E-04
 -2.3284E-03  1.4376E-03  3.2051E-04
 -1.2014E-03  1.2137E-03  2.7751E-04
 -5.2792E-04  1.0983E-03  3.2995E-04
  6.2574E-04  1.2385E-03  2.4629E-04
  1.2727E-03  1.2915E-03  3.0167E-04
  2.5176E-03  1.6085E-03  2.3273E-04
  3.6385E-03  2.0455E-03  2.6393E-04
  4.6622E-03  2.7955E-03  1.7289E-04
  5.3293E-03  3.6707E-03  1.6963E-04
  5.7565E-03  4.8878E-03  2.7385E-05
  5.4739E-03  6.1334E-03 -2.8265E-05
  4.7873E-03  7.5351E-03 -2.4375E-04
  3.1226E-03  8.6282E-03 -3.3910E-04
  1.0075E-03  9.3463E-03 -6.3961E-04
 -1.5306E-03  9.1600E-03 -6.4050E-04
 -3.8821E-03  8.3770E-03 -6.2523E-04
 -5.2332E-03  6.8536E-03 -3.5799E-04
 -6.0007E-03  5.4760E-03 -1.9197E-04
 -5.7105E-03  4.0002E-03  6.5963E-05
 -5.0689E-03  2.9938E-03  1.3695E-04
 -3.9587E-03  2.1208E-03  2.7334E-04
 -2.7428E-03  1.6352E-03  2.5481E-04
 -1.3810E-03  1.2868E-03  3.2994E-04
 -6.7697E-04  1.2249E-03  2.7751E-04
  6.5990E-04  1.1548E-03  3.0167E-04
  1.4721E-03  1.2906E-03  2.4068E-04
  2.9081E-03  1.5554E-03  2.8279E-04
  4.3040E-03  2.1426E-03  1.9323E-04
  5.5087E-03  2.8839E-03  1.9792E-04
  6.5609E-03  4.0644E-03  4.7116E-05
  7.0521E-03  5.3798E-03 -2.8265E-05
  7.1534E-03  7.1569E-03 -2.9320E-04
  6.0938E-03  8.8252E-03 -4.7093E-04
  4.3596E-03  1.0443E-02 -9.2408E-04
  1.2242E-03  1.1178E-02 -1.2336E-03
 -2.2756E-03  1.0929E-02 -1.4528E-03
 -5.1232E-03  9.3659E-03 -1.2525E-03
 -7.1459E-03  7.6056E-03 -8.6567E-04
 -7.4565E-03  5.5959E-03 -4.2393E-04
 -7.1513E-03  4.1662E-03 -1.3515E-04
 -6.0124E-03  2.8884E-03  1.4136E-04
 -4.6919E-03  2.1071E-03  1.8615E-04
 -3.1624E-03  1.4940E-03  3.0163E-04
 -1.5966E-03  1.2219E-03  2.6866E-04
 -7.2585E-04  1.0794E-03  3.2993E-04
  8.1719E-04  9.4328E-04  2.4569E-04
  1.6732E-03  1.0039E-03  2.9223E-04
  3.3430E-03  1.3488E-03  2.2004E-04
  4.9671E-03  1.8379E-03  2.3563E-04
  6.5452E-03  2.7379E-03  9.7479E-05
  7.8252E-03  3.8302E-03  2.8267E-05
  8.8649E-03  5.5466E-03 -2.5170E-04
  8.9192E-03  7.3934E-03 -4.8976E-04
  8.2606E-03  9.8090E-03 -1.0252E-03
  5.4747E-03  1.1693E-02 -1.4875E-03
  1.5233E-03  1.2717E-02 -2.1829E-03
 -3.3421E-03  1.1862E-02 -2.3347E-03
 -7.4674E-03  9.7530E-03 -1.8028E-03
 -9.0030E-03  7.1902E-03 -1.1395E-03
 -9.4428E-03  5.2164E-03 -5.8313E-04
 -8.4181E-03  3.5519E-03 -1.3190E-04
 -7.0681E-03  2.4954E-03  4.1227E-05
 -5.3532E-03  1.6493E-03  2.3562E-04
 -3.5918E-03  1.1876E-03  2.3800E-04
 -1.7957E-03  8.6722E-04  3.2992E-04
 -8.7784E-04  8.0950E-04  2.7690E-04
  8.4840E-04  4.7134E-04  3.1108E-04
  1.8582E-03  5.8327E-04  2.3861E-04
  3.7421E-03  8.0120E-04  2.8278E-04
  5.6367E-03  1.3195E-03  1.6140E-04
  7.5010E-03  1.9978E-03  1.2250E-04
  9.2981E-03  3.2260E-03 -1.3985E-04
  1.0615E-02  4.6767E-03 -3.7677E-04
  1.1495E-02  7.0788E-03 -9.5080E-04
  1.0393E-02  9.5178E-03 -1.5722E-03
  7.7177E-03  1.2683E-02 -2.6428E-03
  1.3928E-03  1.4037E-02 -3.1997E-03
 -5.6101E-03  1.2571E-02 -2.9355E-03
 -9.7946E-03  9.3663E-03 -2.0615E-03
 -1.1824E-02  6.4184E-03 -1.1632E-03
 -1.1095E-02  4.0735E-03 -4.5209E-04
 -9.8036E-03  2.6602E-03 -1.6486E-04
 -7.9151E-03  1.6066E-03  1.2250E-04
 -5.9503E-03  1.0143E-03  1.7730E-04
 -3.9446E-03  5.7967E-04  3.0161E-04
 -1.9598E-03  3.8853E-04  2.7306E-04
 -9.0493E-04  2.9222E-04  3.3935E-04
  9.7095E-04 -1.0016E-04  2.4509E-04
  2.0031E-03 -7.0698E-05  2.9222E-04
  4.0351E-03  1.1399E-04  2.0766E-04
  6.1637E-03  3.8641E-04  2.0734E-04
  8.3459E-03  9.6409E-04  2.3558E-06
  1.0504E-02  1.7052E-03 -1.6958E-04
  1.2556E-02  3.1516E-03 -7.0873E-04
  1.3761E-02  4.8018E-03 -1.3370E-03
  1.4140E-02  8.0698E-03 -2.6431E-03
  9.9927E-03  1.1329E-02 -4.3659E-03
  2.1744E-03  1.5629E-02 -4.8038E-03
 -8.0113E-03  1.5082E-02 -3.2459E-03
 -1.4599E-02  8.8766E-03 -1.9840E-03
 -1.4296E-02  4.5661E-03 -1.0262E-03
 -1.3056E-02  2.6102E-03 -4.9472E-04
 -1.0885E-02  1.2199E-03 -1.8841E-05
 -8.6275E-03  5.5122E-04  8.7159E-05
 -6.3802E-03  8.9530E-05  2.6388E-04
 -4.1867E-03 -1.3196E-04  2.5331E-04
 -2.0832E-03 -2.7807E-04  3.3934E-04
 -1.0116E-03 -3.0341E-04  2.8220E-04
  9.4268E-04 -8.0599E-04  3.1108E-04
  2.0556E-03 -7.9183E-04  2.3625E-04
  4.1992E-03 -7.6821E-04  2.7335E-04
  6.4170E-03 -6.8682E-04  1.3195E-04
  8.8199E-03 -5.6067E-04  5.6538E-05
  1.1299E-02 -2.4936E-04 -3.4415E-04
  1.3713E-02  1.7894E-04 -8.1936E-04
  1.5964E-02  1.2501E-03 -1.8997E-03
  1.6921E-02  2.5645E-03 -3.4256E-03
  1.6282E-02  7.0071E-03 -5.5108E-03
  5.1440E-03  1.3687E-02 -7.3821E-03
 -1.3800E-02  1.0054E-02 -3.0836E-03
 -2.0311E-02  3.9191E-03 -2.1925E-03
 -1.7222E-02  1.5330E-03 -1.3147E-03
 -1.4442E-02 -1.8835E-05 -4.2378E-04
 -1.1638E-02 -5.1929E-04 -1.2011E-04
 -9.0457E-03 -8.2919E-04  1.8845E-04
 -6.5735E-03 -9.2712E-04  2.0734E-04
 -4.3122E-03 -9.8025E-04  3.2989E-04
 -2.1188E-03 -9.9182E-04  2.8014E-04
 -9.8035E-04 -9.9449E-04  3.4878E-04
  9.9161E-04 -1.5172E-03  2.4569E-04
  2.0409E-03 -1.5366E-03  3.0166E-04
  4.1207E-03 -1.6681E-03  2.0885E-04
  6.3713E-03 -1.8520E-03  2.1677E-04
  8.7171E-03 -2.1903E-03 -8.8343E-06
  1.1244E-02 -2.5767E-03 -2.2611E-04
  1.3810E-02 -3.2231E-03 -9.1858E-04
  1.6147E-02 -3.8601E-03 -1.8077E-03
  1.8357E-02 -4.8776E-03 -3.4083E-03
  2.1118E-02 -5.0937E-03 -5.6628E-03
  6.2453E-03 -4.1764E-03 -2.9013E-03
 -1.7778E-02 -2.0218E-03 -4.1471E-03
 -2.2844E-02 -3.8800E-03 -1.9740E-03
 -1.8235E-02 -3.7327E-03 -1.2050E-03
 -1.4646E-02 -3.2156E-03 -5.5565E-04
 -1.1696E-02 -2.6707E-03 -2.8262E-05
 -8.9435E-03 -2.3110E-03  1.0012E-04
 -6.5313E-03 -2.0122E-03  2.7331E-04
 -4.2328E-03 -1.8392E-03  2.5744E-04
 -2.0974E-03 -1.7109E-03  3.3936E-04
 -1.0157E-03 -1.6886E-03  2.8516E-04
  8.8618E-04 -2.1259E-03  3.0168E-04
  1.9126E-03 -2.2343E-03  2.3981E-04
  3.8838E-03 -2.4368E-03  2.8280E-04
  5.9195E-03 -2.9269E-03  1.6524E-04
  8.0952E-03 -3.5528E-03  1.3194E-04
  1.0319E-02 -4.7027E-03 -1.8667E-04
  1.2429E-02 -6.0190E-03 -5.3690E-04
  1.4321E-02 -8.4600E-03 -1.2718E-03
  1.5687E-02 -1.0863E-02 -1.9579E-03
  1.6896E-02 -1.6089E-02 -2.9978E-03
  8.2157E-03 -2.0612E-02 -3.9409E-03
 -1.3882E-02 -1.7489E-02 -2.1809E-04
 -2.2023E-02 -1.1515E-02 -1.1294E-04
 -1.6151E-02 -8.6481E-03 -5.4728E-04
 -1.3379E-02 -6.0610E-03 -2.2605E-04
 -1.0752E-02 -4.7208E-03 -4.8874E-05
 -8.3870E-03 -3.6328E-03  1.9790E-04
 -6.1131E-03 -3.0393E-03  2.1413E-04
 -4.0109E-03 -2.5828E-03  3.2050E-04
 -1.9708E-03 -2.3833E-03  2.7928E-04
 -9.1444E-04 -2.2814E-03  3.3938E-04
  8.4086E-04 -2.6392E-03  2.4572E-04
  1.7300E-03 -2.7058E-03  3.0169E-04
  3.4686E-03 -3.0756E-03  2.3097E-04
  5.2551E-03 -3.6008E-03  2.5451E-04
  7.0595E-03 -4.6049E-03  1.2694E-04
  8.7776E-03 -5.8282E-03  6.5962E-05
  1.0361E-02 -7.9298E-03 -2.5172E-04
  1.1302E-02 -1.0210E-02 -4.7093E-04
  1.1787E-02 -1.4067E-02 -8.4037E-04
  1.1367E-02 -1.7923E-02 -8.0013E-04
  4.2981E-03 -2.3736E-02 -8.9550E-04
 -8.6822E-03 -2.4560E-02 -9.9763E-04
 -1.4445E-02 -1.6159E-02 -2.7656E-04
 -1.2780E-02 -1.0666E-02 -1.6952E-04
 -1.1108E-02 -8.0686E-03 -1.0009E-04
 -9.2672E-03 -5.9222E-03  1.1307E-04
 -7.3803E-03 -4.7073E-03  1.6051E-04
 -5.4812E-03 -3.7327E-03  2.9221E-04
 -3.6085E-03 -3.2143E-03  2.6307E-04
 -1.7960E-03 -2.8518E-03  3.2997E-04
 -8.7443E-04 -2.7883E-03  2.8048E-04
  6.7886E-04 -2.8804E-03  2.9229E-04
  1.4974E-03 -3.0377E-03  2.4043E-04
  2.9887E-03 -3.3516E-03  2.9227E-04
  4.4705E-03 -4.0416E-03  2.1771E-04
  5.8676E-03 -4.9298E-03  2.4507E-04
  7.1765E-03 -6.3978E-03  1.1221E-04
  8.0470E-03 -8.0989E-03  7.5382E-05
  8.5751E-03 -1.0634E-02 -1.2335E-04
  7.9732E-03 -1.3262E-02 -1.4129E-04
  6.6475E-03 -1.6991E-02 -1.8599E-04
  1.5819E-03 -2.0942E-02 -8.4746E-05
 -4.8122E-03 -1.9197E-02 -5.2586E-04
 -8.1279E-03 -1.4810E-02 -3.0138E-04
 -9.3322E-03 -1.1302E-02 -1.0215E-04
 -8.6355E-03 -8.4047E-03  7.5378E-05
 -7.6159E-03 -6.6093E-03  1.2487E-04
 -6.1974E-03 -5.0993E-03  2.5449E-04
 -4.6996E-03 -4.2000E-03  2.4127E-04
 -3.1300E-03 -3.5024E-03  3.2054E-04
 -1.5651E-03 -3.1885E-03  2.7401E-04
 -7.1656E-04 -3.0312E-03  3.3000E-04
  6.1703E-04 -2.9861E-03  2.3868E-04
  1.2588E-03 -3.0597E-03  2.9230E-04
  2.5054E-03 -3.4488E-03  2.3366E-04
  3.6769E-03 -3.9975E-03  2.8284E-04
  4.7837E-03 -4.9486E-03  2.0975E-04
  5.6084E-03 -6.0891E-03  2.3565E-04
  6.2258E-03 -7.7267E-03  1.2870E-04
  6.1392E-03 -9.5033E-03  1.3192E-04
  5.5983E-03 -1.1664E-02  2.3555E-05
  3.6882E-03 -1.3731E-02  3.7683E-05
  9.3083E-04 -1.4975E-02 -1.1893E-04
 -2.5529E-03 -1.4842E-02 -9.4204E-05
 -5.4196E-03 -1.2644E-02 -1.1718E-04
 -6.3744E-03 -1.0172E-02  2.8268E-05
 -6.6355E-03 -8.1681E-03  1.0396E-04
 -5.9617E-03 -6.3811E-03  2.4506E-04
 -5.0672E-03 -5.1797E-03  2.2890E-04
 -3.8843E-03 -4.1812E-03  3.1112E-04
 -2.6368E-03 -3.6097E-03  2.6665E-04
 -1.3248E-03 -3.2059E-03  3.2059E-04
 -6.4943E-04 -3.1305E-03  2.6991E-04
  4.4321E-04 -2.8007E-03  2.9233E-04
  1.0461E-03 -2.9380E-03  2.3162E-04
  2.0509E-03 -3.2060E-03  2.8288E-04
  3.0043E-03 -3.7686E-03  2.2983E-04
  3.7760E-03 -4.4784E-03  2.7342E-04
  4.4214E-03 -5.5220E-03  2.0563E-04
  4.6330E-03 -6.6926E-03  2.4508E-04
  4.5680E-03 -8.1195E-03  1.5758E-04
  3.7461E-03 -9.5420E-03  1.8848E-04
  2.5108E-03 -1.0770E-02  8.4222E-05
  4.7116E-04 -1.1605E-02  1.2250E-04
 -1.7409E-03 -1.1269E-02  3.5337E-06
 -3.4586E-03 -1.0230E-02  8.4815E-05
 -4.6606E-03 -8.7150E-03  9.8960E-05
 -4.8449E-03 -7.1307E-03  2.2622E-04
 -4.6787E-03 -5.8512E-03  2.1918E-04
 -3.9974E-03 -4.7187E-03  3.0169E-04
 -3.1710E-03 -3.9607E-03  2.5929E-04
 -2.1546E-03 -3.3616E-03  3.2060E-04
 -1.1000E-03 -3.0779E-03  2.6845E-04
 -4.8092E-04 -2.9327E-03  3.2061E-04
  4.1789E-04 -2.4985E-03  2.2574E-04
  8.5345E-04 -2.5509E-03  2.7348E-04
  1.6871E-03 -2.8317E-03  2.2485E-04
  2.4046E-03 -3.2249E-03  2.8289E-04
  3.0365E-03 -3.8515E-03  2.2365E-04
  3.3942E-03 -4.5869E-03  2.7342E-04
  3.5798E-03 -5.5213E-03  2.0947E-04
  3.2899E-03 -6.4950E-03  2.4510E-04
  2.7400E-03 -7.4572E-03  1.7851E-04
  1.6259E-03 -8.2851E-03  2.2621E-04
  2.9454E-04 -8.6419E-03  1.3372E-04
 -1.1782E-03 -8.5960E-03  1.9793E-04
 -2.5188E-03 -7.9045E-03  1.4345E-04
 -3.2757E-03 -6.9426E-03  2.4509E-04
 -3.7064E-03 -5.8959E-03  2.1536E-04
 -3.5497E-03 -4.8744E-03  2.9227E-04
 -3.1935E-03 -4.0745E-03  2.5458E-04
 -2.5271E-03 -3.3946E-03  3.1118E-04
 -1.7717E-03 -2.9740E-03  2.6051E-04
 -8.9588E-04 -2.6782E-03  3.2063E-04
 -4.3793E-04 -2.6187E-03  2.6228E-04
  2.9236E-04 -1.9852E-03  2.6407E-04
  7.1646E-04 -2.0704E-03  2.2015E-04
  1.3769E-03 -2.2351E-03  2.7349E-04
  1.9863E-03 -2.5721E-03  2.2279E-04
  2.4140E-03 -2.9893E-03  2.7346E-04
  2.7268E-03 -3.5566E-03  2.2159E-04
  2.7249E-03 -4.1769E-03  2.7343E-04
  2.5438E-03 -4.8525E-03  2.1331E-04
  1.9562E-03 -5.4962E-03  2.6397E-04
  1.1919E-03 -5.9633E-03  1.9915E-04
  1.6026E-04 -6.2501E-03  2.5453E-04
 -9.1001E-04 -6.1344E-03  1.9237E-04
 -1.8053E-03 -5.7837E-03  2.6397E-04
 -2.5187E-03 -5.1556E-03  2.2067E-04
 -2.7767E-03 -4.4502E-03  2.9228E-04
 -2.8290E-03 -3.7808E-03  2.4840E-04
 -2.5177E-03 -3.1637E-03  3.1118E-04
 -2.0750E-03 -2.7144E-03  2.5314E-04
 -1.4382E-03 -2.3482E-03  3.0178E-04
 -7.4917E-04 -2.1715E-03  2.5287E-04
 -3.0179E-04 -2.0842E-03  3.0179E-04
  2.8884E-04 -1.3994E-03  2.1574E-04
  6.0361E-04 -1.4288E-03  2.7351E-04
  1.1854E-03 -1.5673E-03  2.1868E-04
  1.6504E-03 -1.7588E-03  2.7349E-04
  2.0405E-03 -2.0588E-03  2.2103E-04
  2.2066E-03 -2.3999E-03  2.7347E-04
  2.2424E-03 -2.8041E-03  2.2277E-04
  1.9706E-03 -3.2200E-03  2.8287E-04
  1.5551E-03 -3.5923E-03  2.2216E-04
  8.7211E-04 -3.8986E-03  2.8285E-04
  1.0047E-04 -4.0143E-03  2.2421E-04
 -7.1183E-04 -3.9976E-03  2.8285E-04
 -1.4561E-03 -3.7490E-03  2.2982E-04
 -1.9423E-03 -3.4038E-03  3.0172E-04
 -2.2742E-03 -2.9767E-03  2.4457E-04
 -2.2632E-03 -2.5461E-03  3.0175E-04
 -2.1139E-03 -2.1787E-03  2.5197E-04
 -1.7117E-03 -1.8531E-03  3.0178E-04
 -1.2305E-03 -1.6466E-03  2.4845E-04
 -6.3190E-04 -1.4996E-03  3.0180E-04
 -3.0475E-04 -1.4684E-03  2.4463E-04
  1.9806E-04 -7.1209E-04  2.6409E-04
  5.4762E-04 -7.3802E-04  2.1457E-04
  1.0469E-03 -7.9695E-04  2.7351E-04
  1.4904E-03 -9.0391E-04  2.1839E-04
  1.7730E-03 -1.0374E-03  2.7349E-04
  1.9639E-03 -1.2153E-03  2.2102E-04
  1.9048E-03 -1.4051E-03  2.7347E-04
  1.7176E-03 -1.6004E-03  2.2719E-04
  1.2776E-03 -1.7868E-03  2.8287E-04
  7.3634E-04 -1.9091E-03  2.3189E-04
  6.1287E-05 -1.9895E-03  3.0172E-04
 -6.2525E-04 -1.9518E-03  2.3749E-04
 -1.2116E-03 -1.8575E-03  3.0173E-04
 -1.6988E-03 -1.6834E-03  2.4841E-04
 -1.9190E-03 -1.4852E-03  3.0175E-04
 -2.0081E-03 -1.2849E-03  2.5108E-04
 -1.8248E-03 -1.0987E-03  3.0178E-04
 -1.5367E-03 -9.5195E-04  2.4639E-04
 -1.0846E-03 -8.3468E-04  2.9237E-04
 -5.7091E-04 -7.7486E-04  2.3903E-04
 -2.0750E-04 -7.4510E-04  2.9238E-04
  2.5112E-04 -3.4544E-04  2.1103E-04
  5.1874E-04 -2.9238E-04  2.6409E-04
  1.0186E-03 -3.8551E-04  2.1339E-04
  1.4100E-03 -3.7725E-04  2.7351E-04
  1.7229E-03 -5.0514E-04  2.1868E-04
  1.8389E-03 -5.3754E-04  2.7348E-04
  1.8442E-03 -6.8545E-04  2.2220E-04
  1.5889E-03 -7.2608E-04  2.8289E-04
  1.2288E-03 -8.6455E-04  2.2689E-04
  6.6947E-04 -8.7691E-04  2.9230E-04
  5.2449E-05 -9.6117E-04  2.3867E-04
 -5.7989E-04 -9.0519E-04  2.9230E-04
 -1.1710E-03 -8.9991E-04  2.4339E-04
 -1.5700E-03 -7.6380E-04  3.1118E-04
 -1.8571E-03 -7.2198E-04  2.5166E-04
 -1.8767E-03 -5.6582E-04  3.1120E-04
 -1.7730E-03 -5.3402E-04  2.4874E-04
 -1.4477E-03 -4.0554E-04  3.0180E-04
 -1.0534E-03 -4.0614E-04  2.4227E-04
 -5.4232E-04 -3.1124E-04  2.9238E-04
 -2.6055E-04 -3.6430E-04  2.3933E-04
  3.7312E-04  1.4351E-04  4.6401E-04
  8.9453E-04  2.2244E-04  4.6401E-04
  1.7077E-03  2.1047E-04  4.6400E-04
  2.4547E-03  3.3811E-04  4.5650E-04
  2.9654E-03  3.7307E-04  4.4959E-04
  3.3260E-03  5.6285E-04  4.3551E-04
  3.2997E-03  6.5038E-04  4.2561E-04
  3.0717E-03  8.6790E-04  4.0048E-04
  2.3955E-03  9.5630E-04  3.9686E-04
  1.5294E-03  1.1397E-03  3.6338E-04
  3.8727E-04  1.1570E-03  3.7771E-04
 -7.9637E-04  1.2093E-03  3.7144E-04
 -1.8408E-03  1.0806E-03  4.2076E-04
 -2.7174E-03  9.9428E-04  4.3722E-04
 -3.1274E-03  7.6511E-04  4.8298E-04
 -3.3040E-03  6.5219E-04  4.9497E-04
 -3.0131E-03  4.3044E-04  5.2131E-04
 -2.5448E-03  3.7816E-04  5.2942E-04
 -1.7841E-03  2.2959E-04  5.3572E-04
 -9.3575E-04  2.4156E-04  5.3514E-04
 -3.9224E-04  1.6264E-04  5.3574E-04
  4.5026E-04  4.4308E-04  4.6401E-04
  9.1366E-04  4.5922E-04  4.6401E-04
  1.7857E-03  5.5428E-04  4.6130E-04
  2.5064E-03  6.8399E-04  4.5440E-04
  3.1223E-03  8.9350E-04  4.4242E-04
  3.4099E-03  1.1335E-03  4.3042E-04
  3.5163E-03  1.4415E-03  4.0050E-04
  3.1655E-03  1.7501E-03  3.8254E-04
  2.5924E-03  2.0671E-03  3.3948E-04
  1.5921E-03  2.3236E-03  3.2990E-04
  4.3806E-04  2.4730E-03  2.9523E-04
 -8.1756E-04  2.4766E-03  3.2989E-04
 -2.0018E-03  2.3037E-03  3.4305E-04
 -2.8115E-03  2.0178E-03  4.1121E-04
 -3.3751E-03  1.6739E-03  4.3515E-04
 -3.4049E-03  1.3103E-03  4.8301E-04
 -3.2044E-03  1.0175E-03  5.0158E-04
 -2.6067E-03  7.6049E-04  5.2612E-04
 -1.8792E-03  6.0358E-04  5.3004E-04
 -9.5667E-04  4.8790E-04  5.3095E-04
 -4.7236E-04  4.6698E-04  5.3395E-04
  4.3052E-04  8.1799E-04  4.6400E-04
  1.0030E-03  8.9033E-04  4.6310E-04
  1.9325E-03  1.0284E-03  4.5920E-04
  2.7921E-03  1.3273E-03  4.4303E-04
  3.4149E-03  1.6931E-03  4.2566E-04
  3.8811E-03  2.2229E-03  3.8498E-04
  3.9163E-03  2.7974E-03  3.4908E-04
  3.7188E-03  3.4728E-03  2.7643E-04
  2.9690E-03  4.1021E-03  2.2949E-04
  1.9649E-03  4.6553E-03  1.3386E-04
  5.4021E-04  4.9862E-03  1.0995E-04
 -9.7734E-04  4.9787E-03  7.2307E-05
 -2.2996E-03  4.6183E-03  1.7689E-04
 -3.3830E-03  4.0159E-03  2.2770E-04
 -3.8348E-03  3.2610E-03  3.4427E-04
 -3.9774E-03  2.5712E-03  3.9900E-04
 -3.5629E-03  1.9130E-03  4.6868E-04
 -2.9561E-03  1.4659E-03  4.9951E-04
 -2.0567E-03  1.1049E-03  5.2614E-04
 -1.0697E-03  9.3483E-04  5.3124E-04
 -4.5920E-04  8.4665E-04  5.3573E-04
  5.5398E-04  1.1244E-03  4.6489E-04
  1.1241E-03  1.1719E-03  4.6399E-04
  2.2173E-03  1.4329E-03  4.4962E-04
  3.1711E-03  1.7936E-03  4.3046E-04
  4.0170E-03  2.4029E-03  3.8320E-04
  4.5142E-03  3.1083E-03  3.2518E-04
  4.7913E-03  4.0622E-03  2.2174E-04
  4.4702E-03  5.0343E-03  1.2430E-04
  3.8313E-03  6.0882E-03 -4.4817E-05
  2.4761E-03  6.9503E-03 -1.7208E-04
  8.0094E-04  7.5239E-03 -3.8299E-04
 -1.1854E-03  7.5236E-03 -3.7761E-04
 -3.0354E-03  6.9372E-03 -3.1250E-04
 -4.1687E-03  5.8801E-03 -6.2148E-05
 -4.8806E-03  4.7539E-03  7.4705E-05
 -4.7530E-03  3.5576E-03  2.7734E-04
 -4.3123E-03  2.6873E-03  3.8287E-04
 -3.4148E-03  1.9370E-03  4.7348E-04
 -2.3995E-03  1.5087E-03  5.0639E-04
 -1.2149E-03  1.2006E-03  5.2615E-04
 -5.9521E-04  1.1477E-03  5.3004E-04
  5.7400E-04  1.2245E-03  4.6876E-04
  1.3043E-03  1.3504E-03  4.6039E-04
  2.5541E-03  1.5975E-03  4.4482E-04
  3.7514E-03  2.1376E-03  4.0025E-04
  4.7296E-03  2.8119E-03  3.3954E-04
  5.5485E-03  3.8456E-03  2.1517E-04
  5.8423E-03  4.9913E-03  7.1714E-05
  5.8039E-03  6.4585E-03 -1.7119E-04
  4.8848E-03  7.8435E-03 -4.0149E-04
  3.5008E-03  9.1791E-03 -8.0948E-04
  1.1135E-03  9.9832E-03 -1.1565E-03
 -1.6240E-03  1.0057E-02 -1.4319E-03
 -3.9429E-03  8.9612E-03 -1.0849E-03
 -5.6898E-03  7.5982E-03 -8.5977E-04
 -6.1573E-03  5.6936E-03 -3.2029E-04
 -6.0584E-03  4.3043E-03  1.1355E-05
 -5.1835E-03  3.0221E-03  2.8691E-04
 -4.1069E-03  2.2408E-03  4.1218E-04
 -2.7931E-03  1.6214E-03  4.9262E-04
 -1.4191E-03  1.3491E-03  5.1776E-04
 -6.3137E-04  1.2053E-03  5.3092E-04
  7.3392E-04  1.2075E-03  4.6606E-04
  1.4971E-03  1.2723E-03  4.5918E-04
  2.9848E-03  1.6289E-03  4.2986E-04
  4.3855E-03  2.1330E-03  3.7781E-04
  5.7063E-03  3.0326E-03  2.6300E-04
  6.6936E-03  4.1118E-03  1.0519E-04
  7.4364E-03  5.6952E-03 -1.8165E-04
  7.3222E-03  7.3891E-03 -5.1619E-04
  6.6708E-03  9.4123E-03 -1.0474E-03
  4.6156E-03  1.1099E-02 -1.6054E-03
  1.7146E-03  1.2290E-02 -2.6615E-03
 -2.2073E-03  1.1834E-02 -3.2011E-03
 -5.7261E-03  1.0471E-02 -2.7340E-03
 -7.4360E-03  7.9521E-03 -2.1362E-03
 -8.1959E-03  6.0567E-03 -9.9032E-04
 -7.4245E-03  4.2214E-03 -2.5338E-04
 -6.3149E-03  3.0632E-03  1.3777E-04
 -4.8156E-03  2.0946E-03  3.7779E-04
 -3.2563E-03  1.5714E-03  4.6720E-04
 -1.6310E-03  1.2005E-03  5.1655E-04
 -7.9816E-04  1.1348E-03  5.2553E-04
  7.8442E-04  9.1834E-04  4.7352E-04
  1.7105E-03  1.0564E-03  4.5737E-04
  3.4148E-03  1.3248E-03  4.3044E-04
  5.1149E-03  1.9383E-03  3.4013E-04
  6.7085E-03  2.7350E-03  2.1039E-04
  8.1825E-03  4.0821E-03 -6.6631E-05
  9.1197E-03  5.6592E-03 -4.2539E-04
  9.6230E-03  7.9714E-03 -1.0621E-03
  8.5949E-03  1.0339E-02 -1.7629E-03
  6.6095E-03  1.2731E-02 -3.1213E-03
  1.8484E-03  1.3875E-02 -4.8287E-03
 -3.7339E-03  1.3032E-02 -5.0193E-03
 -7.8247E-03  1.0199E-02 -4.4951E-03
 -1.0226E-02  7.4403E-03 -2.4750E-03
 -9.8882E-03  5.2045E-03 -1.2330E-03
 -8.9669E-03  3.6963E-03 -4.0841E-04
 -7.3104E-03  2.4719E-03  1.0040E-04
 -5.5404E-03  1.7296E-03  3.3683E-04
 -3.6872E-03  1.1621E-03  4.7346E-04
 -1.8369E-03  9.1111E-04  5.1504E-04
 -8.4178E-04  7.8438E-04  5.3089E-04
  9.2760E-04  5.0789E-04  4.7202E-04
  1.9036E-03  5.5959E-04  4.6394E-04
  3.8254E-03  8.5906E-04  4.1489E-04
  5.7958E-03  1.2959E-03  3.2996E-04
  7.7740E-03  2.1563E-03  1.1087E-04
  9.6179E-03  3.2458E-03 -2.0077E-04
  1.1283E-02  5.1525E-03 -8.3574E-04
  1.2002E-02  7.3434E-03 -1.6149E-03
  1.1834E-02  1.0862E-02 -3.1996E-03
  8.1513E-03  1.4006E-02 -4.6463E-03
  2.0790E-03  1.5343E-02 -6.7154E-03
 -5.8826E-03  1.3470E-02 -7.3150E-03
 -1.1763E-02  9.5413E-03 -4.3705E-03
 -1.2431E-02  6.3060E-03 -2.0160E-03
 -1.1892E-02  4.1132E-03 -1.0089E-03
 -1.0157E-02  2.5668E-03 -2.6290E-04
 -8.2209E-03  1.6509E-03  1.2042E-04
 -6.1254E-03  9.7548E-04  3.7298E-04
 -4.0408E-03  6.1094E-04  4.7196E-04
 -2.0087E-03  3.6348E-04  5.3088E-04
 -9.7539E-04  3.1895E-04  5.3597E-04
  9.4702E-04 -1.1957E-04  4.7829E-04
  2.0393E-03 -5.0220E-05  4.5855E-04
  4.1512E-03  9.0867E-05  4.2086E-04
  6.3324E-03  4.4860E-04  2.8542E-04
  8.6585E-03  9.4187E-04  6.6935E-05
  1.1021E-02  1.9544E-03 -4.5380E-04
  1.3218E-02  3.2256E-03 -1.2090E-03
  1.5194E-02  5.7548E-03 -2.7913E-03
  1.5257E-02  8.5668E-03 -5.0522E-03
  1.2408E-02  1.4306E-02 -7.9253E-03
  1.3125E-03  1.8184E-02 -9.8699E-03
 -1.0604E-02  1.4083E-02 -7.0916E-03
 -1.4988E-02  8.4563E-03 -3.9488E-03
 -1.5669E-02  5.0406E-03 -2.1167E-03
 -1.3628E-02  2.4704E-03 -6.4507E-04
 -1.1315E-02  1.2738E-03 -1.5295E-04
 -8.9019E-03  4.8286E-04  2.3426E-04
 -6.5339E-03  1.0042E-04  3.9240E-04
 -4.2993E-03 -1.6260E-04  5.0214E-04
 -2.1154E-03 -2.7052E-04  5.3207E-04
 -9.7568E-04 -3.2523E-04  5.4524E-04
  1.0230E-03 -8.1431E-04  4.7411E-04
  2.1140E-03 -8.0831E-04  4.6394E-04
  4.2813E-03 -7.7327E-04  4.0532E-04
  6.6469E-03 -7.1250E-04  2.9648E-04
  9.1393E-03 -5.4205E-04 -1.5240E-05
  1.1902E-02 -2.7723E-04 -5.5446E-04
  1.4716E-02  4.4021E-04 -1.7746E-03
  1.7344E-02  1.2897E-03 -3.6206E-03
  1.9844E-02  3.6241E-03 -7.0579E-03
  1.7767E-02  6.6906E-03 -1.2985E-02
  2.6104E-03  1.0729E-02 -9.2145E-03
 -1.5608E-02  1.1147E-02 -6.3845E-03
 -2.1041E-02  4.6400E-03 -3.8750E-03
 -1.8417E-02  1.3373E-03 -2.3403E-03
 -1.5225E-02  2.2427E-04 -9.5383E-04
 -1.2145E-02 -5.8312E-04 -3.3458E-05
 -9.2689E-03 -8.2410E-04  2.4084E-04
 -6.7709E-03 -9.5635E-04  4.3514E-04
 -4.3848E-03 -9.9294E-04  5.0394E-04
 -2.1714E-03 -1.0092E-03  5.4523E-04
 -1.0528E-03 -1.0122E-03  5.4943E-04
  9.6619E-04 -1.5258E-03  4.7831E-04
  2.0731E-03 -1.5763E-03  4.6156E-04
  4.2470E-03 -1.6787E-03  4.2566E-04
  6.5215E-03 -1.9215E-03  2.9619E-04
  9.0938E-03 -2.2233E-03  7.1718E-05
  1.1848E-02 -2.7608E-03 -5.9003E-04
  1.4785E-02 -3.3306E-03 -1.7728E-03
  1.7668E-02 -4.3283E-03 -3.8396E-03
  2.0660E-02 -5.4907E-03 -7.1189E-03
  1.9501E-02 -7.3028E-03 -8.2748E-03
  5.7672E-03 -5.3140E-03 -6.8119E-03
 -1.7447E-02 -4.9968E-03 -3.3983E-03
 -2.4801E-02 -4.9697E-03 -3.0076E-03
 -1.8696E-02 -4.2954E-03 -1.8243E-03
 -1.5549E-02 -3.3113E-03 -1.0608E-03
 -1.2121E-02 -2.7448E-03 -1.9806E-04
 -9.2752E-03 -2.3284E-03  2.7252E-04
 -6.6543E-03 -2.0607E-03  4.2200E-04
 -4.3521E-03 -1.8508E-03  5.1651E-04
 -2.1266E-03 -1.7517E-03  5.4166E-04
 -9.8530E-04 -1.6980E-03  5.5483E-04
  9.5188E-04 -2.1860E-03  4.7176E-04
  1.9611E-03 -2.2385E-03  4.6876E-04
  3.9540E-03 -2.5239E-03  4.2927E-04
  6.1023E-03 -2.9364E-03  3.5867E-04
  8.3456E-03 -3.7580E-03  1.4016E-04
  1.0794E-02 -4.7805E-03 -2.1512E-04
  1.3288E-02 -6.7278E-03 -1.2264E-03
  1.5183E-02 -8.8670E-03 -2.7662E-03
  1.6630E-02 -1.3285E-02 -4.0149E-03
  1.7945E-02 -1.7525E-02 -4.8120E-03
  5.3279E-03 -2.0953E-02 -2.8102E-03
 -1.5263E-02 -1.9257E-02  3.2931E-04
 -2.0612E-02 -1.3207E-02 -9.5652E-04
 -1.6758E-02 -8.8999E-03 -9.1244E-04
 -1.3750E-02 -6.6268E-03 -5.8422E-04
 -1.1162E-02 -4.7420E-03 -8.1264E-05
 -8.6106E-03 -3.7791E-03  2.4744E-04
 -6.2934E-03 -3.0463E-03  4.3996E-04
 -4.0803E-03 -2.6580E-03  5.0638E-04
 -2.0185E-03 -2.3868E-03  5.4527E-04
 -9.7817E-04 -2.3402E-03  5.4828E-04
  8.0365E-04 -2.6358E-03  4.6879E-04
  1.7550E-03 -2.7852E-03  4.6221E-04
  3.5491E-03 -3.0756E-03  4.4962E-04
  5.3707E-03 -3.7470E-03  3.8620E-04
  7.2495E-03 -4.6290E-03  2.9648E-04
  9.1292E-03 -6.2103E-03  1.6136E-05
  1.0698E-02 -8.1164E-03 -3.5850E-04
  1.1871E-02 -1.1403E-02 -1.0531E-03
  1.2001E-02 -1.4643E-02 -1.2564E-03
  1.1610E-02 -2.0218E-02 -1.7946E-03
  4.0348E-03 -2.6391E-02 -1.3083E-03
 -9.2061E-03 -2.2719E-02 -7.0761E-04
 -1.4440E-02 -1.5472E-02 -7.4040E-04
 -1.3147E-02 -1.1357E-02 -4.8022E-04
 -1.1390E-02 -8.1112E-03 -1.6251E-04
 -9.5501E-03 -6.2471E-03  8.6056E-05
 -7.5792E-03 -4.7149E-03  3.2517E-04
 -5.6040E-03 -3.8637E-03  4.4478E-04
 -3.6926E-03 -3.2142E-03  5.1658E-04
 -1.8240E-03 -2.9304E-03  5.3485E-04
 -8.4190E-04 -2.7888E-03  5.4532E-04
  7.4211E-04 -2.9595E-03  4.5926E-04
  1.5213E-03 -3.0330E-03  4.5925E-04
  3.0451E-03 -3.4511E-03  4.4607E-04
  4.5488E-03 -4.0466E-03  4.2570E-04
  6.0299E-03 -5.1248E-03  3.5391E-04
  7.3066E-03 -6.4554E-03  2.6778E-04
  8.3768E-03 -8.5531E-03  4.6614E-05
  8.6565E-03 -1.0884E-02 -8.1259E-05
  8.4066E-03 -1.4055E-02 -3.5783E-04
  6.1972E-03 -1.7345E-02 -3.3925E-04
  2.0717E-03 -2.0528E-02 -6.3124E-04
 -4.3477E-03 -2.0468E-02 -8.8388E-04
 -9.0184E-03 -1.5443E-02 -6.3316E-04
 -9.3968E-03 -1.1323E-02 -2.6766E-04
 -9.0008E-03 -8.7941E-03  2.3903E-05
 -7.7654E-03 -6.6465E-03  2.6299E-04
 -6.3696E-03 -5.3013E-03  3.8439E-04
 -4.7926E-03 -4.2043E-03  4.7830E-04
 -3.1936E-03 -3.6062E-03  5.1004E-04
 -1.5930E-03 -3.1860E-03  5.3100E-04
 -7.7917E-04 -3.1095E-03  5.3101E-04
  5.7411E-04 -2.9854E-03  4.4972E-04
  1.2840E-03 -3.1405E-03  4.4702E-04
  2.5355E-03 -3.4492E-03  4.4491E-04
  3.7623E-03 -4.1160E-03  4.2784E-04
  4.8405E-03 -4.9697E-03  4.0657E-04
  5.7923E-03 -6.2962E-03  3.4554E-04
  6.2690E-03 -7.8327E-03  2.8691E-04
  6.4184E-03 -9.8387E-03  1.6435E-04
  5.5405E-03 -1.1932E-02  1.0039E-04
  4.0327E-03 -1.4012E-02 -4.8695E-05
  9.1290E-04 -1.5658E-02 -1.7207E-04
 -2.7035E-03 -1.5015E-02 -3.7102E-04
 -5.2964E-03 -1.2992E-02 -3.8241E-04
 -6.8208E-03 -1.0546E-02 -6.9920E-05
 -6.7134E-03 -8.2531E-03  2.0561E-04
 -6.1836E-03 -6.6146E-03  3.4672E-04
 -5.1370E-03 -5.2039E-03  4.5439E-04
 -3.9778E-03 -4.3100E-03  4.8643E-04
 -2.6742E-03 -3.6118E-03  5.1188E-04
 -1.3479E-03 -3.2906E-03  5.1579E-04
 -6.0281E-04 -3.1289E-03  5.1669E-04
  5.1733E-04 -2.8714E-03  4.3360E-04
  1.0574E-03 -2.9377E-03  4.3061E-04
  2.0938E-03 -3.2872E-03  4.3149E-04
  3.0283E-03 -3.7794E-03  4.3057E-04
  3.8838E-03 -4.5977E-03  4.1558E-04
  4.4436E-03 -5.5724E-03  3.9701E-04
  4.8048E-03 -6.8691E-03  3.5272E-04
  4.5574E-03 -8.2635E-03  3.1562E-04
  3.9598E-03 -9.7438E-03  2.3789E-04
  2.4719E-03 -1.1088E-02  1.7691E-04
  5.6477E-04 -1.1747E-02  7.9486E-05
 -1.6830E-03 -1.1709E-02  1.4344E-05
 -3.6979E-03 -1.0519E-02  3.3470E-05
 -4.6576E-03 -8.9088E-03  1.8650E-04
 -5.0889E-03 -7.3552E-03  3.2103E-04
 -4.7161E-03 -5.9023E-03  4.3526E-04
 -4.1151E-03 -4.8530E-03  4.6939E-04
 -3.2005E-03 -3.9707E-03  4.9275E-04
 -2.2056E-03 -3.4486E-03  4.9847E-04
 -1.1100E-03 -3.0812E-03  5.0237E-04
 -5.4394E-04 -3.0080E-03  5.0148E-04
  3.7322E-04 -2.4977E-03  4.2107E-04
  8.7533E-04 -2.6125E-03  4.1897E-04
  1.6938E-03 -2.8373E-03  4.2105E-04
  2.4661E-03 -3.2992E-03  4.2103E-04
  3.0475E-03 -3.8752E-03  4.2101E-04
  3.5020E-03 -4.6911E-03  4.0872E-04
  3.5780E-03 -5.5966E-03  3.9702E-04