% Model:              Onedradial_solutes_zeroconc.mph
% Version:            COMSOL 5.6.0.280
% Date:               Apr 16 2021, 10:52
% Dimension:          1
% Nodes:              1741
% Expressions:        49
% Description:        Liniengraph
% R                       Height                   Height                   Height                   Height                   Height                   Height                   Height                   Height                   Height                   Height                   Height                   Height                   Height                   Height                   Height                   Height                   Height                   Height                   Height                   Height                   Height                   Height                   Height                   Height                   Height                   Height                   Height                   Height                   Height                   Height                   Height                   Height                   Height                   Height                   Height                   Height                   Height                   Height                   Height                   Height                   Height                   Height                   Height                   Height                   Height                   Height                   Height                   Height                   Height
0                         0                        0                        0                        0                        0                        0                        0                        0                        0                        0                        0                        0                        0                        0                        0                        0                        0                        0                        0                        0                        0                        0                        0                        0                        0                        0                        0                        0                        0                        0                        0                        0                        0                        0                        0                        0                        0                        0                        0                        0                        0                        0                        0                        0                        0                        0                        0                        0                        0
3.333333333333348E-4      0.0033253592230406363    6.495218136704098E-4     4.5254985598534804E-4    3.7848264741554313E-4    3.57915568006025E-4      3.497854677364477E-4     3.333960304479562E-4     3.0758797293504287E-4    2.859399433165136E-4     2.7739422195266304E-4    2.7444703383505724E-4    2.8081115029869944E-4    2.8969946659867065E-4    2.9379077493272036E-4    2.9199566800367047E-4    2.8114990433594084E-4    2.5891674060304806E-4    2.3619271344186603E-4    2.1080231660048563E-4    1.9423264314530738E-4    1.9595899924969626E-4    2.1972233508977363E-4    2.659575571781867E-4     3.322233281102283E-4     3.826613025983527E-4     3.9863206189572704E-4    3.5791861498017284E-4    2.832366850432216E-4     2.275023561558916E-4     2.3689852951139562E-4    2.924678506559856E-4     2.95954651063662E-4      2.409475012590771E-4     2.3568825330457096E-4    2.8257964562007165E-4    3.4092455580809404E-4    3.4761357349223193E-4    3.2932603176920284E-4    3.125814708973663E-4     3.3819271827007386E-4    3.4575151968204224E-4    3.6831270540324936E-4    4.119140529590823E-4     4.226189507601822E-4     4.111541600773409E-4     3.846326808038805E-4     3.817256536914099E-4     4.250520362768283E-4     4.969858457627731E-4
6.666666666666661E-4      0.0066507184460812725    0.0012990436273408196    9.050997119706961E-4     7.569652948310863E-4     7.1583113601205E-4       6.995709354728954E-4     6.667920608959124E-4     6.151759458700857E-4     5.718798866330272E-4     5.547884439053261E-4     5.488940676701145E-4     5.616223005973989E-4     5.793989331973413E-4     5.875815498654407E-4     5.839913360073409E-4     5.622998086718817E-4     5.178334812060961E-4     4.7238542688373206E-4    4.2160463320097127E-4    3.8846528629061475E-4    3.919179984993925E-4     4.3944467017954726E-4    5.319151143563734E-4     6.644466562204566E-4     7.653226051967054E-4     7.972641237914541E-4     7.158372299603457E-4     5.664733700864432E-4     4.550047123117832E-4     4.7379705902279124E-4    5.849357013119712E-4     5.91909302127324E-4      4.818950025181542E-4     4.713765066091419E-4     5.651592912401433E-4     6.818491116161881E-4     6.952271469844639E-4     6.586520635384057E-4     6.251629417947325E-4     6.763854365401477E-4     6.915030393640845E-4     7.366254108064987E-4     8.238281059181646E-4     8.452379015203644E-4     8.223083201546818E-4     7.69265361607761E-4      7.634513073828198E-4     8.501040725536566E-4     9.939716915255462E-4
0.0010000000000000009     0.009976077669121909     0.0019485654410112295    0.0013576495679560442    0.0011354479422466294    0.0010737467040180752    0.001049356403209343     0.0010001880913438686    9.227639188051287E-4     8.578198299495408E-4     8.321826658579892E-4     8.233411015051718E-4     8.424334508960983E-4     8.69098399796012E-4      8.813723247981612E-4     8.759870040110115E-4     8.434497130078226E-4     7.767502218091443E-4     7.085781403255981E-4     6.32406949801457E-4      5.826979294359222E-4     5.878769977490888E-4     6.591670052693209E-4     7.978726715345602E-4     9.96669984330685E-4      0.001147983907795058     0.0011958961856871812    0.0010737558449405186    8.497100551296649E-4     6.825070684676748E-4     7.106955885341869E-4     8.774035519679569E-4     8.87863953190986E-4      7.228425037772313E-4     7.070647599137129E-4     8.47738936860215E-4      0.0010227736674242821    0.0010428407204766958    9.879780953076086E-4     9.377444126920989E-4     0.0010145781548102216    0.0010372545590461267    0.0011049381162097482    0.001235742158877247     0.0012678568522805466    0.0012334624802320228    0.0011538980424116415    0.0011451769610742297    0.001275156108830485     0.0014909575372883193
0.0013333333333333357     0.009986109893863752     0.0025207863829079112    0.001785037921543629     0.0014927070375262332    0.0013956931528582475    0.00135458032621081      0.0012940370327321588    0.0012042851811728665    0.0011283199783504452    0.0010934946087092369    0.0010769197729747586    0.001089974164165278     0.001112240900003465     0.0011216683783972531    0.0011147136852942357    0.0010809666891456074    0.0010132198285529405    9.430260646226218E-4     8.63414382012992E-4      8.080938084150732E-4     8.047607434085096E-4     8.647653257147546E-4     9.90257488820286E-4      0.0011764998962293038    0.0013269130229877858    0.0013923521040531857    0.0013046287261050326    0.001103202398901147     9.443785973606497E-4     9.459611869862311E-4     0.001079312325904896     0.0011075004979401635    9.761437015966925E-4     9.366223627152392E-4     0.0010315906561611558    0.001176969852247742     0.0012199828990631678    0.0011882134841747932    0.0011581621175367658    0.0012402705638923405    0.0012663742034701216    0.001332181873832911     0.0014592090974900986    0.0014903862090756997    0.001463969914483882     0.001401942007778147     0.001393899502667705     0.0014831149721405497    0.0016327850515252945
0.001666666666666667      0.009996142118605595     0.003093007324804593     0.0022124262751312134    0.001849966132805837     0.0017176396016984198    0.0016598042492122769    0.0015878859741204488    0.001485806443540604     0.0013988201267513493    0.0013548065515604842    0.0013304984444443453    0.0013375148774344577    0.0013553834002109177    0.0013619644319963452    0.0013534403665774598    0.001318483665283392     0.0012496894352967366    0.0011774739889196457    0.001094421814224527     0.0010334896873942243    0.0010216444890679304    0.0010703636461601882    0.0011826423061060114    0.0013563298081279223    0.0015058421381805133    0.0015888080224191901    0.0015355016072695466    0.0013566947426726292    0.0012062501262536244    0.0011812267854382752    0.001281221099841835     0.0013271370426893407    0.0012294448994161536    0.0011661799655167653    0.0012154423754620965    0.0013311660370712015    0.0013971250776496395    0.0013884488730419777    0.0013785798223814325    0.0014659629729744592    0.0014954938478941165    0.0015594256314560738    0.00168267603610295      0.0017129155658708525    0.0016944773487357408    0.0016499859731446524    0.0016426220442611805    0.0016910738354506143    0.0017746125657622696
0.0020000000000000018     0.010006174343347439     0.0036652282667012748    0.002639814628718798     0.002207225228085441     0.0020395860505385923    0.001965028172213744     0.0018817349155087388    0.0017673277059083417    0.0016693202751522536    0.0016161184944117318    0.001584077115913932     0.0015850555907036374    0.0015985259004183707    0.0016022604855954372    0.001592167047860684     0.0015560006414211767    0.0014861590420405329    0.0014119219132166694    0.001325429246436062     0.0012588855663733755    0.0012385282347273513    0.0012759619666056219    0.0013750271233917372    0.001536159720026541     0.001684771253373241     0.0017852639407851948    0.0017663744884340606    0.0016101870864441113    0.0014681216551465993    0.0014164923838903196    0.001483129873778774     0.0015467735874385182    0.0014827460972356148    0.0013957375683182915    0.0013992940947630372    0.0014853622218946611    0.0015742672562361112    0.0015886842619091625    0.0015989975272260994    0.001691655382056578     0.0017246134923181115    0.0017866693890792368    0.0019061429747158016    0.0019354449226660054    0.0019249847829876       0.001898029938511158     0.001891344585854656     0.001899032698760679     0.0019164400799992446
0.0023333333333333366     0.010003584774356714     0.004145443249827212     0.0030318628468906836    0.0025401277824460403    0.002332199349616188     0.0022360288676983035    0.0021425520194386033    0.0020225157774516724    0.0019198343265629891    0.0018593868747843623    0.0018194584285115174    0.0018100912739061619    0.0018135135451454736    0.0018104211074181358    0.0017968212021197342    0.0017614850463587566    0.0016975215687696648    0.0016293739735795038    0.0015498131328697633    0.0014855538894344817    0.0014582672327255834    0.0014780280489197727    0.0015490119867689236    0.0016739337138725941    0.0017990381266038962    0.001900109653457986     0.0019168401819555595    0.0018086819200878823    0.0016884461079320178    0.001627817433878991     0.001667465790907997     0.0017208876728042853    0.0016762477905512745    0.001605775497283067     0.0015945693168723102    0.001649411229888844     0.001724218996209224     0.0017499296106531581    0.0017764950363437285    0.0018600308292746153    0.001889577593316005     0.0019385305547886921    0.0020367658034080127    0.002071438581592645     0.002070193630967678     0.0020412965351839264    0.002026557499158721     0.002034767587800936     0.0020641477730713536
0.002666666666666668      0.010000995205365988     0.00462565823295315      0.0034239110650625694    0.0028730303368066394    0.002624812648693784     0.0025070295631828632    0.002403369123368467     0.0022777038489950026    0.0021703483779737247    0.002102655255156993     0.0020548397411091026    0.002035126957108686     0.0020285011898725763    0.002018581729240834     0.002001475356378784     0.0019669694512963365    0.0019088840954987968    0.0018468260339423383    0.0017741970193034644    0.0017122222124955878    0.0016780062307238154    0.001680094131233923     0.00172299685014611      0.001811707707718647     0.001913304999834551     0.002014955366130777     0.0020673058754770582    0.002007176753731653     0.001908770560717436     0.0018391424838676623    0.00185180170803722      0.0018950017581700522    0.0018697494838669341    0.0018158134262478425    0.001789844538981583     0.0018134602378830269    0.0018741707361823368    0.0019111749593971536    0.001953992545461358     0.0020284062764926525    0.0020545416943138985    0.0020903917204981473    0.0021673886321002243    0.0022074322405192842    0.0022154024789477556    0.002184563131856695     0.002161770412462785     0.0021705024768411923    0.0022118554661434624
0.0030000000000000027     0.009998405636375263     0.005105873216079087     0.0038159592832344553    0.003205932891167239     0.0029174259477713796    0.002778030258667423     0.0026641862272983314    0.0025328919205383333    0.00242086242938446      0.0023459236355296235    0.002290221053706688     0.0022601626403112103    0.0022434888345996794    0.0022267423510635327    0.0022061295106378343    0.002172453856233916     0.002120246622227929     0.0020642780943051727    0.0019985809057371656    0.001938890535556694     0.0018977452287220473    0.0018821602135480737    0.0018969817135232965    0.0019494817015646999    0.002027571873065206     0.0021298010788035676    0.002217771568998557     0.0022056715873754237    0.0021290950135028543    0.0020504675338563335    0.002036137625166443     0.002069115843535819     0.002063251177182594     0.002025851355212618     0.0019851197610908557    0.0019775092458772098    0.0020241224761554494    0.002072420308141149     0.002131490054578987     0.0021967817237106895    0.0022195057953117918    0.0022422528862076022    0.0022980114607924354    0.0023434258994459237    0.002360611326927833     0.0023278297285294633    0.00229698332576685      0.0023062373658814493    0.002359563159215571
0.0033333333333333375     0.009999074478067329     0.005493993533922928     0.004164162405196716     0.003511267172589848     0.0031867864963237287    0.0030251165004836086    0.0029002345135667727    0.0027646678404401265    0.002650132770961449     0.002570341897854092     0.0025088477334282524    0.0024696492426450954    0.002443225309205632     0.0024190222825323945    0.00239334500602289      0.002358858228888947     0.0023107909579921874    0.00226017190857737      0.002201945508749244     0.0021470300970123273    0.0021040373657645337    0.002078461784228301     0.0020749783074996515    0.0021012103603324415    0.002157223117380913     0.002247717346977036     0.002344993504691716     0.0023620213054665463    0.0023074004771177167    0.0022407204369196783    0.0022197095767367892    0.002237511197066033     0.002232714358478568     0.002207164027208833     0.0021762738177019507    0.0021653927023401105    0.002192917636204902     0.0022293504378095887    0.0022833801070118753    0.0023500290399517403    0.00237909756997562      0.0023970601537564883    0.0024229332396319987    0.0024287670493171316    0.0024294846715782054    0.002431898545713853     0.0024391265195298838    0.002454816217802456     0.002473704396527706
0.0036666666666666688     0.009999743319759393     0.005882113851766769     0.004512365527158976     0.0038166014540124567    0.0034561470448760774    0.0032722027422997938    0.0031362827998352135    0.0029964437603419193    0.002879403112538438     0.002794760160178561     0.002727474413149817     0.002679135844978981     0.0026429617838115843    0.002611302214001256     0.002580560501407945     0.0025452626015439773    0.0025013352937564453    0.002456065722849568     0.0024053101117613223    0.00235516965846796      0.00231032950280702      0.002274763354908528     0.0022529749014760067    0.0022529390191001826    0.00228687436169662      0.002365633615150504     0.0024722154403848747    0.0025183710235576686    0.002485705940732579     0.002430973339983023     0.0024032815283071356    0.002405906550596247     0.0024021775397745416    0.0023884766992050476    0.0023674278743130456    0.0023532761588030116    0.0023617127962543547    0.002386280567478028     0.002435270159444763     0.002503276356192791     0.0025386893446394474    0.002551867421305374     0.0025478550184715614    0.0025141081991883396    0.002498358016228577     0.0025359673628982424    0.002581269713292917     0.0026033950697234623    0.00258784563383984
0.0040000000000000036     0.010000412161451458     0.006270234169610609     0.004860568649121237     0.0041219357354350655    0.0037255075934284265    0.0035192889841159794    0.0033723310861036547    0.0032282196802437125    0.0031086734541154273    0.0030191784225030295    0.002946101092871382     0.002888622447312866     0.0028426982584175368    0.002803582145470118     0.0027677759967930007    0.002731666974199008     0.0026918796295207037    0.002651959537121765     0.0026086747147734007    0.002563309219923593     0.002516621639849506     0.002471064925588755     0.0024309714954523615    0.002404667677867924     0.002416525606012327     0.0024835498833239724    0.0025994373760780337    0.0026747207416487908    0.0026640114043474414    0.0026212262430463677    0.002586853479877482     0.002574301904126461     0.0025716407210705154    0.0025697893712012627    0.0025585819309241406    0.0025411596152659123    0.0025305079563038074    0.0025432106971464675    0.002587160211877651     0.0026565236724338417    0.0026982811193032754    0.00270667468885426      0.002672776797311124     0.0025994493490595475    0.002567231360878949     0.0026400361800826317    0.002723412907055951     0.0027519739216444686    0.0027019868711519743
0.004333333333333338      0.010000239228620325     0.006575862466171431     0.005162266482640744     0.004397936424635338     0.003973984596925035     0.003747547452792945     0.0035889876928345676    0.0034401667482593717    0.00331826164502801      0.003225382183427747     0.003148433099794633     0.003084406586509007     0.0030311008705543956    0.0029857263771020737    0.002944757869777399     0.0029063586335556315    0.002867557404748733     0.002829997754502514     0.00279119537814712      0.0027497181911317796    0.0027041564077395067    0.0026560027075358495    0.0026092258631994006    0.002571410301909456     0.0025702880190082203    0.0026241450418558374    0.002732094924572518     0.002812796249450665     0.00281512353222555      0.0027857822163160732    0.0027556758517182115    0.0027385342661964485    0.0027334086776217236    0.0027323282782334302    0.0027262613496845263    0.002715010434396753     0.0027044946401498155    0.002710280400756221     0.0027391860919044994    0.0027896478777703006    0.0028257276587421525    0.0028447215608632705    0.0028392477800022386    0.0028028147993338533    0.0027818093500651016    0.0028148766462243644    0.002860986613886981     0.0028882667797375883    0.0028779753068952927
0.00466666666666667       0.010000066295789188     0.006881490762732254     0.005463964316160251     0.004673937113835611     0.004222461600421643     0.00397580592146991      0.0038056442995654804    0.0036521138162750304    0.0035278498359405924    0.0034315859443524647    0.003350765106717883     0.003280190725705148     0.0032195034826912536    0.003167870608734029     0.0031217397427617966    0.0030810502929122545    0.003043235179976762     0.0030080359718832627    0.0029737160415208392    0.002936127162339966     0.002891691175629507     0.002840940489482944     0.0027874802309464392    0.002738152925950987     0.0027240504320041135    0.002764740200387702     0.0028647524730670017    0.002950871757252539     0.0029662356601036586    0.0029503381895857788    0.0029244982235589407    0.002902766628266436     0.0028951766341729314    0.0028948671852655973    0.0028939407684449117    0.002888861253527593     0.0028784813239958232    0.002877350104365974     0.0028912119719313473    0.002922772083106759     0.002953174198181029     0.0029827684328722803    0.0030057187626933526    0.003006180249608158     0.002996387339251254     0.0029897171123660967    0.0029985603207180107    0.003024559637830707     0.0030539637426386106
0.0050000000000000044     0.009999893362958054     0.007187119059293076     0.005765662149679758     0.004949937803035883     0.004470938603918252     0.004204064390146875     0.004022300906296393     0.003864060884290689     0.0037374380268531747    0.0036377897052771824    0.0035530971136411337    0.003475974864901289     0.003407906094828112     0.0033500148403659844    0.0032987216157461946    0.0032557419522688774    0.0032189129552047907    0.0031860741892640117    0.0031562367048945583    0.003122536133548152     0.003079225943519508     0.0030258782714300382    0.0029657345986934783    0.0029048955499925183    0.002877812845000007     0.0029053353589195666    0.002997410021561486     0.003088947265054413     0.003117347787981767     0.0031148941628554843    0.00309332059539967      0.0030669989903364236    0.0030569445907241396    0.0030574060922977644    0.0030616201872052974    0.0030627120726584335    0.003052468007841831     0.0030444198079757276    0.0030432378519581957    0.003055896288443218     0.0030806207376199058    0.0031208153048812902    0.0031721897453844666    0.0032095456998824635    0.0032109653284374067    0.003164557578507829     0.003136134027549041     0.0031608524959238263    0.0032299521783819285
0.005333333333333339      0.009999938113266807     0.007423416130510905     0.006022514098825313     0.005196331367709589     0.004699031687137886     0.004415441801565098     0.004222540128929139     0.0040590682055401       0.003929599852398579     0.003827143568352296     0.0037397252004910445    0.003658323492467676     0.003585351728398269     0.0035229337052026565    0.0034673601843261364    0.0034216098826746       0.003383645906550133     0.0033507240411101897    0.003322303443656279     0.0032905755730079297    0.0032490717826205444    0.0031969339229975927    0.003137044983288106     0.003074535266230318     0.0030424305957073034    0.0030603818821502535    0.0031395631186741948    0.003223681950355025     0.003255174449317237     0.0032596761184721657    0.00324395390649326      0.003220270633799666     0.003209678631254743     0.003208798813986647     0.0032128661018153834    0.0032153098967305843    0.003207189587329534     0.0032001853599948307    0.0031975924220920098    0.0032054355779362396    0.003223434071848396     0.003254438897199024     0.003295159483806239     0.0033255711310801466    0.003332373166063488     0.0033074642927622307    0.003290296195091561     0.0033016762259474083    0.0033402676671271743
0.0056666666666666705     0.00999998286357556      0.007659713201728735     0.006279366047970868     0.005442724932383294     0.004927124770357519     0.00462681921298332      0.004422779351561885     0.004254075526789509     0.004121761677943983     0.00401649743142741      0.0039263532873409545    0.003840672120034062     0.0037627973619684253    0.003695852570039328     0.0036359987529060774    0.003587477813080322     0.0035483788578954747    0.0035153738929563673    0.003488370182417999     0.003458615012467707     0.0034189176217215805    0.0033679895745651464    0.0033083553678827336    0.0032441749824681176    0.0032070483464145994    0.0032154284053809404    0.003281716215786903     0.003358416635655636     0.0033930011106527067    0.003404458074088846     0.00339458721758685      0.0033735422772629073    0.0033624126717853456    0.0033601915356755293    0.003364112016425469     0.0033679077208027346    0.0033619111668172367    0.003355950912013933     0.0033519469922258234    0.0033549748674292605    0.003366247406076886     0.0033880624895167573    0.003418129222228011     0.0034415965622778292    0.0034537810036895694    0.003450371007016632     0.0034444583626340804    0.0034424999559709893    0.0034505831558724193
0.006000000000000005      0.010000027613884311     0.007896010272946565     0.006536217997116424     0.005689118497057        0.005155217853577152     0.004838196624401543     0.004623018574194631     0.0044490828480389195    0.004313923503489387     0.004205851294502524     0.004112981374190865     0.004023020747600448     0.003940242995538582     0.003868771434876        0.003804637321486019     0.0037533457434860444    0.003713111809240817     0.0036800237448025453    0.003654436921179719     0.003626654451927484     0.0035887634608226166    0.0035390452261327       0.003479665752477361     0.003413814698705917     0.0033716660971218953    0.0033704749286116273    0.003423869312899612     0.0034931513209562476    0.0035308277719881768    0.003549240029705527     0.00354522052868044      0.0035268139207261487    0.0035151467123159487    0.003511584257364412     0.003515357931035555     0.0035205055448748854    0.0035166327463049393    0.0035117164640330353    0.003506301562359637     0.0035045141569222814    0.0035090607403053756    0.0035216860818344906    0.003541098960649783     0.0035576219934755123    0.003575188841315651     0.003593277721271033     0.0035986205301766       0.003583323685994571     0.003560898644617664
0.00633333333333334       0.010000016024347089     0.008076238613111526     0.006752113737706653     0.005906753333039481     0.0053629975197732075    0.005033349929361297     0.00480839867512305      0.004629144139416065     0.00449067465892699      0.004379899613456749     0.004284838662785988     0.004192180941648744     0.004106446138067838     0.004032043397630071     0.00396483573000226      0.003911009383184805     0.003868722183210216     0.0038341973143285156    0.0038079623474349946    0.0037804536171255096    0.003743897210735822     0.003696488078296916     0.0036401076764374846    0.00357715415484639      0.003534677143515724     0.0035279741541204535    0.003569924206074618     0.003628599928114012     0.0036633829842685063    0.003682952972995592     0.0036824938146075388    0.0036679484320458707    0.0036576167490542824    0.003653441435658599     0.003655828406692412     0.0036601517964167042    0.003657467955913603     0.003653961690779776     0.0036495924564002914    0.0036474503534323173    0.003650367810061353     0.003659850535002582     0.0036751668567917436    0.0036888244833872563    0.0037034121908491673    0.0037183730471057504    0.0037253998081279572    0.003719455282889016     0.003708092980327903
0.006666666666666671      0.010000004434809867     0.008256466953276486     0.006968009478296883     0.006124388169021962     0.005570777185969263     0.00522850323432105      0.004993778776051469     0.004809205430793209     0.0046674258143645925    0.004553947932410975     0.004456695951381111     0.004361341135697039     0.004272649280597093     0.004195315360384142     0.004125034138518501     0.004068673022883565     0.004024332557179614     0.003988370883854486     0.0039614877736902695    0.003934252782323535     0.0038990309606490273    0.0038539309304611324    0.0038005496003976074    0.0037404936109868623    0.0036976881899095522    0.0036854733796292797    0.0037159790992496227    0.003764048535271776     0.0037959381965488354    0.003816665916285656     0.0038197671005346374    0.0038090829433655923    0.0038000867857926153    0.003795298613952786     0.0037962988823492688    0.0037997980479585226    0.0037983031655222663    0.0037962069175265165    0.0037928833504409453    0.0037903865499423527    0.0037916748798173298    0.003798014988170673     0.0038092347529337036    0.003820026973299        0.0038316355403826834    0.0038434683729404676    0.003852179086079314     0.003855586879783461     0.0038552873160381416
0.007000000000000006      0.009999992845272644     0.008436695293441447     0.007183905218887112     0.006342023005004443     0.005778556852165319     0.005423656539280804     0.005179158876979888     0.004989266722170353     0.0048441769698021955    0.0047279962513652       0.004628553239976235     0.0045305013297453345    0.004438852423126349     0.004358587323138213     0.004285232547034742     0.004226336662582326     0.004179942931149013     0.004142544453380456     0.004115013199945545     0.004088051947521561     0.004054164710562233     0.004011373782625349     0.0039609915243577305    0.0039038330671273347    0.0038606992363033805    0.003842972605138106     0.0038620339924246277    0.00389949714242954      0.003928493408829165     0.0039503788595757205    0.003957040386461736     0.003950217454685314     0.003942556822530949     0.003937155792246973     0.003936769358006126     0.0039394442995003415    0.00393913837513093      0.003938452144273257     0.0039361742444816       0.003933322746452388     0.003932981949573307     0.003936179441338765     0.003943302649075664     0.003951229463210744     0.0039598588899162       0.003968563698775185     0.003978958364030671     0.003991718476677906     0.0040024816517483805