% Model:              Onedradial_solutes_zeroconc.mph
% Version:            COMSOL 5.6.0.280
% Date:               Apr 16 2021, 10:52
% Dimension:          1
% Nodes:              1741
% Expressions:        49
% Description:        Liniengraph
% R                       Height                   Height                   Height                   Height                   Height                   Height                   Height                   Height                   Height                   Height                   Height                   Height                   Height                   Height                   Height                   Height                   Height                   Height                   Height                   Height                   Height                   Height                   Height                   Height                   Height                   Height                   Height                   Height                   Height                   Height                   Height                   Height                   Height                   Height                   Height                   Height                   Height                   Height                   Height                   Height                   Height                   Height                   Height                   Height                   Height                   Height                   Height                   Height                   Height
0                         -100.00204611982154      -102.33504615658715      -104.70120326420613      -107.0963613963116       -109.52445357822585      -111.99036185241197      -114.49891838099607      -117.05405545226357      -119.66020690961012      -122.32113417480444      -125.0412715770193       -127.82478399888457      -130.67655939669714      -133.60149362018745      -136.60466122728914      -139.69244262142715      -142.86995994684395      -146.14543337134728      -149.52446225256804      -153.01660521234763      -156.6307715929024       -160.37643903309495      -164.26409680543244      -168.30521670997248      -172.51328627249373      -176.9017935587581       -181.48593917296472      -186.28385360004927      -191.31600733229067      -196.60463612313347      -202.1746296876519       -208.05503689391         -214.27880512760584      -220.88316161125897      -227.91212626100312      -235.41650217057565      -243.45486633709686      -252.09741703835329      -261.42575533495807      -271.5363669798879       -282.5508602019694       -294.6121781493705       -307.89123431749806      -322.60123651382844      -339.08336915437553      -357.73761530983387      -379.0303396489435       -403.5778546577955       -432.3458097506023
3.333333333333348E-4      -100.00203382882557      -102.335032883927        -104.70118892158465      -107.0963458860574       -109.52443678459414      -111.99034365579816      -114.49889864376047      -117.05403401726572      -119.66018359315103      -122.32110877149829      -125.04124386240022      -127.82475372669816      -130.67652628609497      -133.60145735601688      -136.60462145467693      -139.69239891732846      -142.86991184814292      -146.14538030739357      -149.52440360203647      -153.01654017926452      -156.63069922840728      -160.37635822573444      -164.2640062552806       -168.30511493705774      -172.51317171911535      -176.90166449875258      -181.4857934477103       -186.28368801204917      -191.31581847820283      -196.6044198418791       -202.1743807706888       -208.05474892921265      -214.27847047372725      -220.88277032332826      -227.91166589149663      -235.4159568584048       -243.4542157122367       -252.09663420497893      -261.4248053293318       -271.53520405759485      -282.54942221542666      -294.6103812880052       -307.8889659103483       -322.59834233052857      -339.079510813532        -357.7322702417763       -379.022933792079        -403.5677022156173       -432.3314678404468
6.666666666666661E-4      -100.00202173591296      -102.33501982412326      -104.70117480897922      -107.09633062454544      -109.52442026028722      -111.99032575100999      -114.49887922305886      -117.05401292603058      -119.66016065062985      -122.32108377559939      -125.04121659225812      -127.82472394000827      -130.67649370651358      -133.60142167344642      -136.60458231993644      -139.69235591415878      -142.86986452085694      -146.14532809449486      -149.52434589216676      -153.0164761892193       -156.63062802454849      -160.3762787144403       -164.26391715748136      -168.30501479652773      -172.5130590031494       -176.90153750888774      -181.48565005996593      -186.28352508024102      -191.3156326536124       -196.60420703021936      -202.1741358470335       -208.054465584486        -214.27814118918644      -220.8823853138262       -227.91121290947055      -235.4154202976265       -243.45357553008415      -252.09586393808254      -261.4238705763312       -271.5340598101535       -282.54800732656605      -294.60861329730363      -307.8867339629206       -322.59549468352566      -339.0757145715234       -357.7270113266435       -379.01564750512125      -403.5577139677487       -432.31735834268716
0.0010000000000000009     -100.00200984108376      -102.33500697717601      -104.70116092638992      -107.0963156117758       -109.5244040053051       -111.99030813804747      -114.49886011889132      -117.0539921785582       -119.66013808204656      -122.3210591871078       -125.041189766593        -127.82469463881493      -130.67646165795304      -133.60138657247612      -136.60454382306762      -139.69231361191817      -142.86981796498603      -146.1452767326512       -149.5242891229589       -153.016413242212        -156.6305579813261       -160.3762004992126       -164.2638295120348       -168.3049162883824       -172.51294812459602      -176.90141258916367      -181.48550900973166      -186.28336480462488      -191.31544985851946      -196.60399768815424      -202.1738949166861       -208.05418685973015      -214.2778172739835       -220.8820065827529       -227.91076731492495      -235.41489248824072      -243.45294579063935      -252.09510623766414      -261.4229510759564       -271.53293423756384      -282.54661553538756      -294.6068741772658       -307.8845384752149       -322.5926935728198       -339.07198042834995      -357.7218385644355       -379.0084807880705       -403.54788991419014      -432.3034812573234
0.0013333333333333357     -100.00199813494334      -102.33499433296446      -104.70114726288014      -107.09630083592137      -109.52438800684214      -111.99029080303502      -114.49884131620739      -117.05397175850361      -119.6601158696214       -122.32103498665226      -125.04116336427106      -127.82466580003377      -130.67643011516432      -133.60135202545186      -136.6045059337406       -139.69227197727838      -142.8697721438505       -146.1452261813961       -149.52423324968558      -153.01635128864734      -156.63048904355293      -160.376123518424        -164.26374324988134      -168.3048193350009       -172.5128389960839       -176.90128964114174      -181.48537018585452      -186.283207058892        -191.31526994886116      -196.60379165068974      -202.173657789744        -208.0539125352361       -214.2774984727647       -220.88163383151033      -227.9103287565016       -235.41437301399884      -243.45232599717735      -252.0943605059376       -261.4220461025858       -271.5318264513166       -282.54524574281794      -294.6051625538966       -307.88237771171623      -322.5899367827267       -339.06830542598567      -357.71674784853076      -379.0014279366099       -403.5382222144331       -432.289825474314
0.001666666666666667      -100.001986608951        -102.33498188228803      -104.70113380850746      -107.09628628623048      -109.52437225325686      -111.99027373335863      -114.49882280132503      -117.05395165100765      -119.6600939971909       -122.32101115662265      -125.04113736607972      -127.82463740267919      -130.67639905519388      -133.60131800723383      -136.60446862438326      -139.69223097994157      -142.86972702410552      -146.14517640394197      -149.52417823168577      -153.01629028343865      -156.63042116105848      -160.3760477160495       -164.26365830824003      -168.30472386581934      -172.51273153818593      -176.9011685753337       -181.48523348728676      -186.28305172821698      -191.31509279367262      -196.60358876783332      -202.17342429357035      -208.05364241127032      -214.27718455339362      -220.8812667886497       -227.9098969147896       -235.41386149650202      -243.45171569814596      -252.0936261994786       -261.421154996577        -271.5307356436802       -282.5438969497107       -294.6034771781644       -307.88025009484426      -322.58722229933613      -339.0646868757699       -357.71173544604585      -378.9944837657205       -403.52870374282105      -432.27638089838496
0.0020000000000000018     -100.00197526310676      -102.33496962514675      -104.70112056327199      -107.0962719627031       -109.5243567445493       -111.99025692901832      -114.49880457424428      -117.05393185607039      -119.66007246475509      -122.32098769701892      -125.041111772019        -127.82460944675118      -130.67636847804184      -133.60128451782217      -136.60443189499577      -139.69219061990788      -142.86968260575114      -146.14512740028889      -149.52412406895954      -153.01623022658598      -156.63035433384283      -160.37597309208923      -164.2635746871109       -168.30462988083787      -172.51262575090232      -176.90104939173963      -181.48509891402853      -186.28289881259994      -191.3149183929539       -196.60338903958493      -202.17319442816523      -208.05337648783294      -214.27687551587024      -220.88090545417106      -227.909471789789        -235.41335793575035      -243.45111489354517      -252.09290331828717      -261.42027775793         -271.52966181465484      -282.5425691560659       -294.601818050069        -307.87815562459906      -322.5845501226483       -339.0611247777026       -357.7068013569807       -378.9876482754023       -403.51933449935404      -432.2631475295364
0.0023333333333333366     -100.00196408925757      -102.3349575527576       -104.70110751768259      -107.09625785507542      -109.52434146960636      -111.99024037797251      -114.49878662190403      -117.05391235950722      -119.66005125688426      -122.32096459103036      -125.04108656374848      -127.82458191221666      -130.6763383617966       -133.60125153321806      -136.60439571925713      -139.69215086825423      -142.8696388569558       -146.14507913531895      -149.52407072269125      -153.0161710750491       -156.63028851401316      -160.37589959306172      -164.26349232656307      -168.3045373126963       -172.51252155841146      -176.9009320049333       -181.48496636961903      -186.28274820242802      -191.31474662168517      -196.60319232276052      -202.17296802872897      -208.05311457425864      -214.2765711385971       -220.88054956894942      -227.90905307659028      -235.41286197052625      -243.4505231523272       -252.0921913436156       -261.4194137569537       -271.52860419318085      -282.54126140810297      -294.6001839773089       -307.87609279509286      -322.58191833033675      -339.05761656540375      -357.70194201817253      -378.9809165164988       -403.5101076830213       -432.25011573328527
0.002666666666666668      -100.00195307995926      -102.33494565710131      -104.70109466307358      -107.09624395397624      -109.52432641828135      -111.99022406922685      -114.49876893237898      -117.05389314836688      -119.66003035949028      -122.3209418233078       -125.04106172452245      -127.82455478078465      -130.67630868645188      -133.60121903150966      -136.60436007313558      -139.69211169857297      -142.86959574865605      -146.14503157696808      -149.5240181574407       -153.01611278953055      -156.63022365784107      -160.37582717013606      -164.2634111718774       -168.30444609989235      -172.51241889148602      -176.9008163369178       -181.4848357659861       -186.2825997976207       -191.3145773657188       -196.60299848662817      -202.17274494479372      -208.0528564964633       -214.27627121924817      -220.88019889639634      -227.90864049680346      -235.41237327102635      -243.4499400809278       -252.09148980183372      -261.418562418747        -271.5275620753232       -282.5399728350818       -294.59857387134514      -307.87406023136896      -322.57932516701845      -339.05415989558844      -357.69715417701957      -378.97428397161883      -403.50101708516206      -432.2372767126205
0.0030000000000000027     -100.0019422352119       -102.33493393817793      -104.70108199944497      -107.09623025940559      -109.52431159057433      -111.99020800278134      -114.49875150566915      -117.05387422264943      -119.66000977257322      -122.32091939385138      -125.04103725434098      -127.82452805245512      -130.67627945200775      -133.60118701269704      -136.60432495663102      -139.6920731108642       -142.86955328085193      -146.1449847252363       -149.52396637320797      -153.0160553700305       -156.63015976532665      -160.37575582331226      -164.26333122305388      -168.30435624242602      -172.51231775012602      -176.90070238769323      -181.4847071031298       -186.2824535981779       -191.31441062505488      -196.602807531188        -202.17252517635947      -208.052602254447        -214.27597575782337      -220.8798534365118       -227.9082340504286       -235.41189183725075      -243.4493656793469       -252.09079869294158      -261.41772374331         -271.52653546108195      -282.5387034370026       -294.596987732178        -307.8720579334275       -322.57677063269347      -339.0507547682569       -357.6924378335219       -378.9677506407625       -403.4920627057764       -432.224630467542
0.0033333333333333375     -100.0019315478945       -102.3349223883164       -104.70106951850727      -107.09621676239911      -109.52429697677917      -111.99019216811892      -114.498734330367        -117.05385556996616      -119.65998948265683      -122.32089728797855      -125.04101313718557      -127.82450170973112      -130.67625063932664      -133.60115545581974      -136.60429034675508      -139.69203507986688      -142.86951142574236      -146.14493854945238      -149.52391533609241      -153.01599877895836      -156.6300967946409       -160.37568550587966      -164.2632524277482       -168.30426768146324      -172.5122180681071       -176.9005900826477       -181.4845802968027       -186.2823095083653       -191.31424629050306      -196.60261933138585      -202.17230857949346      -208.0523516816856       -214.27568456078436      -220.87951296298223      -227.90783347116613      -235.41141735372364      -243.44879957112383      -252.09011756388702      -261.41689718069983      -271.5255236770535       -282.53745238089186      -294.59542451854315      -307.87008458617424      -322.5742530486389       -339.04739894233563      -357.6877898763278       -378.96131220265437      -403.4832386072552       -432.2121685876474
0.0036666666666666688     -100.00192101147944      -102.33491100048492      -104.70105721266181      -107.09620345473948      -109.52428256799857      -111.99017655559902      -114.49871739601578      -117.05383717896059      -119.65996947738783      -122.32087549223039      -125.04098935837266      -127.82447573657407      -130.67622223086585      -133.60112434166408      -136.60425622243505      -139.69199758242516      -142.86947015784264      -146.1448930215005       -149.52386501501772      -153.0159429818558       -156.63003470744033      -160.37561617502072      -164.26317473797968      -168.30418036307574      -172.5121197847273       -176.9004793533894       -181.48445526977827      -186.28216744042695      -191.3140842619727       -196.6024337725891       -202.17209502225796      -208.05210462553438      -214.2753974507228       -220.8791772683571       -227.90743851491277      -235.41094953126213      -243.4482414111706       -252.08944599938008      -261.4160822268309       -271.52452610601324      -282.5362189032743       -294.5938832760161       -307.8681389840929       -322.57177087585325      -339.04409036345874      -357.683207453961        -378.9549646972834       -403.4745393476032       -432.19988336322314
0.0040000000000000036     -100.00191062596679      -102.33489977468355      -104.70104508190863      -107.09619033642679      -109.5242683642326       -111.99016116522166      -114.49870070261545      -117.05381904963276      -119.65994975676628      -122.32085400660694      -125.04096591790226      -127.82445013298396      -130.67619422662546      -133.60109367023017      -136.60422258367097      -139.69196061853899      -142.8694294771528       -146.14484814138078      -149.52381540998408      -153.01588797872287      -156.62997350372495      -160.3755478307355       -164.26309815374844      -168.3040942872636       -172.51202289998668      -176.9003701999184       -181.48433202205652      -186.2820273943629       -191.3139245394638       -196.60225085479777      -202.17188450465304      -208.05186108599355      -214.27511442763893      -220.87884635263646      -227.90704918166855      -235.41048836986621      -243.4476911994872       -252.0887839994207       -261.4152788817031       -271.5235427479613       -282.53500300414976      -294.59236400459673      -307.8662211271836       -322.56932411433655      -339.0408290316262       -357.6786905664216       -378.94870812464967      -403.4659649268204       -432.1877747942693
0.004333333333333338      -100.00190038510053      -102.33488870417308      -104.70103311896531      -107.09617739958564      -109.52425435695426      -111.99014598774747      -114.49868424014431      -117.05380117109898      -119.65993030895297      -122.32083281820928      -125.04094280170182      -127.82442488358954      -130.67616660979283      -133.601063423104        -136.6041894102673       -139.6919241660163       -142.86938935924897      -146.14480388214758      -149.52376649120868      -153.0158337365352       -156.629913146747        -160.3754804319881       -164.26302262907026      -168.30400940234247      -172.51192735570893      -176.90026255668917      -181.48421047962526      -186.28188928606968      -191.31376702705197      -196.60207046815103      -202.1716769002329       -208.0516209167714       -214.27483532150873      -220.8785200170047       -227.90666523749147      -235.41003359239275      -243.447148605355        -252.08813116601013      -261.4144866622132       -271.5225730113569       -282.53380395181557      -294.5908657896048       -307.8643298601854       -322.5669112893285       -339.0376129782003       -357.6742364810517       -378.9425386897999       -403.45751013035243      -432.17583549431595
0.00466666666666667       -100.00189028312512      -102.33487778275358      -104.70102131713199      -107.09616463697081      -109.52424053831874      -111.99013101467622      -114.49866799938248      -117.05378353334613      -119.65991112305593      -122.3208119151706       -125.04091999682471      -127.82439997424929      -130.67613936490048      -133.60103358334464      -136.60415668364396      -139.69188820444026      -142.86934978166119      -146.14476021901123      -149.52371823129155      -153.0157802249109       -156.62985360269883      -160.37541394102595      -164.2629481216398       -168.30392566076245      -172.5118330983715       -176.90015636339953      -181.4840905743937       -186.28175303817272      -191.31361163648722      -196.6018925115774       -202.17147209266867      -208.05138398328165      -214.2745599759128       -220.8781980785542       -227.90628646715814      -235.40958494387465      -243.44661332451986      -252.08748713299903      -261.4137051239182       -271.52161635199747      -282.53262107312713      -294.5893877895708       -307.8624641203232       -322.5645310441636       -339.0344403922221       -357.6698426841133       -378.93645290194274      -403.44917016189197      -432.16405866985326
0.0050000000000000044     -100.00188032004053      -102.33486701042506      -104.70100967640872      -107.09615204858234      -109.52422690832606      -111.99011624600796      -114.49865198033001      -117.05376613637426      -119.65989219907527      -122.3207912974909       -125.040897503271        -127.82437540496329      -130.67611249194832      -133.60100415095218      -136.60412440380094      -139.69185273381092      -142.86931074438948      -146.14471715197172      -149.52367063023289      -153.01572744385         -156.6297948715806       -160.3753483578491       -164.26287463145712      -168.3038430625236       -172.51174012797458      -176.9000516200495       -181.4839723063618       -186.2816186506721       -191.3134583677696       -196.60171698507708      -202.17127008196022      -208.0511502855244       -214.2742883908512       -220.8778805372851       -227.90591287066857      -235.4091424243119       -243.44608535698194      -252.0868519003874       -261.4129342668179       -271.52067276988294      -282.53145436808444      -294.587930004495        -307.8606239075971       -322.5621833788419       -339.03131127369153      -357.66550917560676      -378.93045076107836      -403.44094502143895      -432.1524443208816
0.005333333333333339      -100.00187049032115      -102.33485638123523      -104.70099819036339      -107.09613962746435      -109.52421345944488      -111.99010167358213      -114.49863617413531      -117.05374897057038      -119.6598735265541       -122.32077095377745      -125.04087530861126      -127.82435116215511      -130.67608597608702      -133.60097510966267      -136.60409255290077      -139.69181773452723      -142.86927222586178      -146.14467465722979      -149.52362366172747      -153.01567536418443      -156.62973692093567      -160.3752836462136       -164.26280211790763      -168.3037615619765       -172.51164839313464      -176.89994826874687      -181.4838556101597       -186.281486049285        -191.31330713617575      -196.60154379161762      -202.17107075642738      -208.05091969429134      -214.27402041615517      -220.87756721759928      -227.90554424140112      -235.40870578892913      -243.4455644106507       -252.08622511666243      -261.41217366423064      -271.5197417425514       -282.53030319043734      -294.58649162655007      -307.8588082017722       -322.5598669910773       -339.02822388421237      -357.6612335423521       -378.9245289160952       -403.43283010515705      -432.14098592743187
0.0056666666666666705     -100.00186078886634      -102.33484588968963      -104.70098685305858      -107.09612736719619      -109.52420018472316      -111.99008728986587      -114.4986205726278       -117.05373202706106      -119.65985509584004      -122.32075087351393      -125.0408534013723       -127.82432723329255      -130.67605980360915      -133.60094644446323      -136.60406111447793      -139.69178318849626      -142.86923420616546      -146.14463271281718      -149.52357730149402      -153.01562395899003      -156.62967972080386      -160.37521977266297      -164.26273054350006      -168.30368111698215      -172.5115578464198       -176.8998462560523       -181.4837404254463       -186.2813551654433       -191.3131578635          -196.60137284163162      -202.17087401298173      -208.05069209031464      -214.27375591320907      -220.87725795740891      -227.90518038863115      -235.40827481178061      -243.44505021590155      -252.0856064573554       -261.41142292232286      -271.51882278779374      -282.52916694373056      -294.5850719101049       -307.8570160610386       -322.55758067849587      -339.0251766189548       -357.65701355733074      -378.9186842747065       -403.42482116371576      -432.12967746977114
0.006000000000000005      -100.00185121567608      -102.33483553578836      -104.70097566449436      -107.09611526777786      -109.52418708416096      -111.9900730948592       -114.4986051758075       -117.05371530584634      -119.65983690693318      -122.32073105670034      -125.04083178155409      -127.82430361837567      -130.67603397451475      -133.60091815535387      -136.60403008853257      -139.691749095718        -142.86919668530064      -146.14459131873397      -149.52353154953252      -153.01557322826685      -156.62962327118527      -160.37515673719722      -164.26265990823447      -168.30360172754052      -172.51146848783017      -176.89974558196582      -181.48362675222165      -186.28122599914695      -191.31301054974247      -196.60120413511916      -202.17067985162328      -208.05046747359432      -214.27349488201287      -220.87695275671413      -227.90482131235882      -235.40784949286655      -243.4445427727345       -252.08499592246636      -261.41068204109473      -271.5179159056101       -282.52804562796405      -294.58367085515965      -307.8552474853967       -322.5553244410978       -339.0221694779189       -357.6528492205428       -378.9129168369123       -403.4169181971152       -432.1185189478995
0.00633333333333334       -100.00184176584567      -102.33482531424808      -104.70096461896154      -107.0961033230354       -109.52417415107337      -111.99005908131873      -114.49858997581765      -117.05369879839357      -119.65981895055187      -122.32071149322437      -125.04081043812432      -127.82428030535402      -130.67600847562355      -133.60089022789873      -136.6039994592319       -139.69171543879423      -142.86915964411943      -146.1445504538552       -149.5234863824938       -153.01552314612454      -156.62956754327087      -160.37509450764645      -164.26259017606247      -168.30352335313552      -172.51138027176046      -176.89964619510383      -181.48351453246318      -186.28109848446266      -191.3128651197027       -196.6010375859543       -202.1704881732249       -208.05024572944643      -214.27323718927815      -220.8766514596558       -227.90446682918912      -235.40742961492816      -243.4440418218967       -252.0843932000019       -261.409950641836        -271.5170206322806       -282.52693866955275      -294.582287744731        -307.85350156936084      -322.5530971231008       -339.0192009183271       -357.6487383904526       -378.90722362902085      -403.4091171203803       -432.10750457724833
0.006666666666666671      -100.00183243483364      -102.33481522017686      -104.70095371117378      -107.09609152725201      -109.52416137927061      -111.99004524253759      -114.49857496538365      -117.05368249680232      -119.65980121810222      -122.32069217372283      -125.0407893608677       -127.82425728306961      -130.6759832947311       -133.60086264873098      -136.60396921191594      -139.69168220161606      -142.869123064893        -146.14451009862194      -149.5234417787594       -153.0154736885917       -156.62951251038612      -160.37503305422268      -164.26252131360312      -168.30344595624717      -172.51129315597802      -176.8995480478858       -181.48340371244683      -186.28097256034135      -191.31272150375113      -196.60087311439167      -202.17029888600308      -208.05002675168225      -214.27298271159088      -220.8763539219221       -227.90411676931478      -235.4070149768017       -243.44354712333865      -252.08379800108366      -261.40922837390764      -271.5161365384764       -282.5258455374554       -294.58092191498946      -307.8517774745049       -322.5508976542075       -339.01626951163126      -357.64467908454094      -378.90160189836234      -403.40141415159         -432.09662900142877
0.007000000000000006      -100.00182322264001      -102.33480525357479      -104.70094294113109      -107.09607988042777      -109.52414876875275      -111.99003157851585      -114.49856014450552      -117.05366640107266      -119.65978370958427      -122.32067309819578      -125.04076854978429      -127.8242345515224       -130.67595843183747      -133.60083541785073      -136.60393934658478      -139.6916493841835       -142.86908694762138      -146.14447025303414      -149.52339773832952      -153.0154248556684       -156.629458172531        -160.37497237692602      -164.26245332085648      -168.30336953687558      -172.51120714048298      -176.89945114031178      -181.4832942921726       -186.28084822678306      -191.31257970188784      -196.60071072043144      -202.170111989958        -208.0498105403019       -214.27273144895113      -220.87606014351303      -227.90377113273584      -235.40660557848722      -243.44305867706046      -252.08321032571175      -261.40851523730964      -271.5152636241977       -282.52476623167206      -294.5795733659351       -307.8500752008288       -322.548726034418        -339.01337525783174      -357.6406713028079       -378.8960516449371       -403.39380929074423      -432.0858922204407