% Model:              Onedradial_solutes_zeroconc.mph
% Version:            COMSOL 5.6.0.280
% Date:               Apr 20 2021, 08:49
% Dimension:          1
% Nodes:              1741
% Expressions:        49
% Description:        Liniengraph
% R                       Height                   Height                   Height                   Height                   Height                   Height                   Height                   Height                   Height                   Height                   Height                   Height                   Height                   Height                   Height                   Height                   Height                   Height                   Height                   Height                   Height                   Height                   Height                   Height                   Height                   Height                   Height                   Height                   Height                   Height                   Height                   Height                   Height                   Height                   Height                   Height                   Height                   Height                   Height                   Height                   Height                   Height                   Height                   Height                   Height                   Height                   Height                   Height                   Height
0                         0                        0                        0                        0                        0                        0                        0                        0                        0                        0                        0                        0                        0                        0                        0                        0                        0                        0                        0                        0                        0                        0                        0                        0                        0                        0                        0                        0                        0                        0                        0                        0                        0                        0                        0                        0                        0                        0                        0                        0                        0                        0                        0                        0                        0                        0                        0                        0                        0
3.333333333333348E-4      0.0066484079908560355    0.0011978710140246483    9.170010242616515E-4     7.56692828241399E-4      6.68142167559614E-4      6.161713634915367E-4     5.818679113312584E-4     5.601401123103615E-4     5.461903645816603E-4     5.353075271468253E-4     5.22679797798437E-4      5.124663096858591E-4     5.024069809755988E-4     4.93770696653891E-4      4.863105872637108E-4     4.7997161188155203E-4    4.748073417115374E-4     4.706288690052938E-4     4.672883132804031E-4     4.6469121948093076E-4    4.6265593306557757E-4    4.611441523510636E-4     4.6006928617286824E-4    4.593995303257288E-4     4.5912124173082464E-4    4.592031901908601E-4     4.5964610694032224E-4    4.6042702275236533E-4    4.6153804256895194E-4    4.6296818902784363E-4    4.647042136178056E-4     4.667396413274117E-4     4.69066804429469E-4      4.716816425851594E-4     4.745832609565177E-4     4.7777002183698174E-4    4.8124108652759253E-4    4.84989727891759E-4      4.890042817746213E-4     4.93263859420571E-4      4.97731218341632E-4      5.023287536251315E-4     5.067955791901027E-4     6.359993550980144E-4     7.148762760200511E-4     7.38158590652644E-4      7.483048755733695E-4     7.507196603272928E-4     7.499030954378175E-4
6.666666666666661E-4      0.013296815981712071     0.0023957420280492966    0.001834002048523303     0.001513385656482798     0.001336284335119228     0.0012323427269830733    0.0011637358226625168    0.001120280224620723     0.0010923807291633207    0.0010706150542936505    0.001045359595596874     0.0010249326193717183    0.0010048139619511975    9.87541393307782E-4      9.726211745274216E-4     9.599432237631041E-4     9.496146834230749E-4     9.412577380105876E-4     9.345766265608062E-4     9.293824389618615E-4     9.253118661311551E-4     9.222883047021272E-4     9.201385723457365E-4     9.187990606514576E-4     9.182424834616493E-4     9.184063803817202E-4     9.192922138806445E-4     9.208540455047307E-4     9.230760851379039E-4     9.259363780556873E-4     9.294084272356112E-4     9.334792826548233E-4     9.38133608858938E-4      9.433632851703188E-4     9.491665219130355E-4     9.555400436739635E-4     9.624821730551851E-4     9.69979455783518E-4      9.780085635492427E-4     9.86527718841142E-4      9.95462436683264E-4      0.001004657507250263     0.0010135911583802053    0.0012719987101960288    0.0014297525520401023    0.001476317181305288     0.001496609751146739     0.0015014393206545856    0.001499806190875635
0.0010000000000000009     0.019945223972568107     0.0035936130420739453    0.0027510030727849544    0.002270078484724197     0.0020044265026788423    0.0018485140904746101    0.0017456037339937753    0.0016804203369310848    0.001638571093744981     0.001605922581440476     0.0015680393933953111    0.0015373989290575775    0.0015072209429267964    0.001481312089961673     0.0014589317617911325    0.0014399148356446562    0.0014244220251346123    0.0014118866070158814    0.0014018649398412093    0.0013940736584427923    0.0013879677991967328    0.0013834324570531908    0.0013802078585186048    0.0013781985909771864    0.001377363725192474     0.0013776095705725804    0.0013789383208209667    0.001381281068257096     0.0013846141277068559    0.001388904567083531     0.0013941126408534169    0.001400218923982235     0.0014072004132884071    0.0014150449277554782    0.0014237497828695532    0.0014333100655109453    0.0014437232595827776    0.001454969183675277     0.0014670128453238643    0.0014797915782617133    0.001493193655024896     0.0015069862608753947    0.001520386737570308     0.0019079980652940433    0.0021446288280601534    0.002214475771957932     0.0022449146267201087    0.0022521589809818784    0.0022497092863134525
0.0013333333333333357     0.01996818696863999      0.004675925714920197     0.003584402749723251     0.0029685184166075456    0.0026269058760829207    0.002424735116506377     0.002290555199865189     0.002204951706849628     0.0021495893267428406    0.002106401067921647     0.002056977477562868     0.0020169801575296935    0.0019776846351033713    0.001943937905962241     0.0019147132118679084    0.0018898390135039709    0.0018694864227696672    0.0018529366794325852    0.0018396265504722702    0.0018291850770963901    0.0018209190815803925    0.0018146711191491206    0.0018101023122981481    0.0018070820334558206    0.0018055467480806342    0.0018053682562066       0.0018065385992677646    0.0018089596097366717    0.001812590424929588     0.0018173767587412425    0.0018232549488513923    0.0018301855508529913    0.0018381227784369403    0.0018470337318183595    0.0018568957587866367    0.0018676840000655033    0.0018793766288166568    0.0018919328617341563    0.00190529899509525      0.001919398746301838     0.001934119163433262     0.001949253560521361     0.0019641541103798447    0.0021976408841581393    0.0023419806461751603    0.0023886103415857256    0.0024117443192291747    0.0024209275381165134    0.002424059382003532
0.001666666666666667      0.019991149964711873     0.005758238387766449     0.004417802426661547     0.003666958348490894     0.0032493852494869992    0.0030009561425381436    0.002835506665736603     0.0027294830767681712    0.0026606075597407       0.0026068795544028174    0.002545915561730425     0.002496561386001809     0.0024481483272799456    0.0024065637219628086    0.0023704946619446843    0.0023397631913632854    0.002314550820404722     0.0022939867518492886    0.0022773881611033307    0.0022642964957499878    0.002253870363964052     0.0022459097812450503    0.0022399967660776915    0.0022359654759344545    0.0022337297709687943    0.0022331269418406196    0.0022341388777145626    0.0022366381512162474    0.00224056672215232      0.0022458489503989535    0.0022523972568493675    0.0022601521777237473    0.0022690451435854733    0.0022790225358812403    0.00229004173470372      0.002302057934620061     0.002315029998050536     0.002328896539793036     0.002343585144866636     0.0023590059143419623    0.0023750446718416277    0.0023915208601673274    0.002407921483189381     0.002487283703022235     0.0025393324642901667    0.002562744911213519     0.0025785740117382403    0.002589696095251148     0.0025984094776936115
0.0020000000000000018     0.020014112960783755     0.006840551060612701     0.005251202103599844     0.004365398280374242     0.003871864622891078     0.00357717716856991      0.0033804581316080164    0.0032540144466867145    0.0031716257927385597    0.003107358040883988     0.003034853645897982     0.0029761426144739246    0.0029186120194565203    0.0028691895379633764    0.00282627611202146      0.0027896873692226003    0.0027596152180397768    0.0027350368242659924    0.0027151497717343917    0.0026994079144035854    0.0026868216463477117    0.00267714844334098      0.0026698912198572346    0.0026648489184130887    0.0026619127938569544    0.002660885627474639     0.0026617391561613605    0.002664316692695823     0.002668543019375052     0.002674321142056665     0.002681539564847343     0.0026901188045945035    0.0026999675087340065    0.0027110113399441216    0.0027231877106208037    0.002736431869174619     0.002750683367284415     0.002765860217851915     0.002781871294638022     0.002798613082382087     0.0028159701802499934    0.0028337881598132935    0.002851688855998917     0.0027769265218863305    0.0027366842824051735    0.0027368794808413127    0.002745403704247306     0.002758464652385783     0.002772759573383691
0.0023333333333333366     0.020008196115243793     0.007770085571566324     0.005996120319766125     0.005004854072476791     0.0044485990792420245    0.004113730960478143     0.003889057351358187     0.0037436588833947033    0.003648207248400606     0.0035737714813378466    0.00349091068438038      0.003423790058955381     0.0033582016413597968    0.003301856458291094     0.0032528293101365263    0.0032109791362775718    0.003176460628705635     0.003148141447475046     0.0031251320158831317    0.0031068084173941396    0.0030920725944105073    0.003080637702312345     0.0030719395070206074    0.003065742420292165     0.0030619101172236407    0.003060213786730409     0.003060610040187294     0.0030629152849819844    0.003067037006000253     0.0030728581349468358    0.0030802461398388094    0.003089103978018859     0.003099321124604407     0.0031108071283231942    0.0031234846572638555    0.0031372763970749537    0.003152111209252044     0.003167897427187053     0.0031845355467267455    0.003201915176120061     0.0032199160497245697    0.0032383811314079186    0.003256942939121961     0.0032162804504709055    0.003194275065646534     0.0031952419623740287    0.003200546441235728     0.0032082446944859304    0.0032165563771137536
0.002666666666666668      0.02000227926970383      0.008699620082519947     0.006741038535932405     0.005644309864579338     0.005025333535592971     0.004650284752386375     0.004397656571108357     0.004233303320102692     0.004124788704062653     0.004040184921791705     0.0039469677228627775    0.0038714375034368366    0.003797791263263073     0.0037345233786188117    0.003679382508251592     0.0036322709033325433    0.0035933060393714936    0.003561246070684099     0.0035351142600318713    0.0035142089203846934    0.0034973235424733025    0.003484126961283709     0.00347398779418398      0.003466635922171241     0.003461907440590326     0.0034595419459861787    0.0034594809242132277    0.003461513877268146     0.0034655309926254537    0.003471395127837006     0.0034789527148302753    0.003488089151443215     0.003498674740474807     0.0035106029167022664    0.0035237816039069073    0.0035381209249752883    0.0035535390512196727    0.0035699346365221907    0.0035871997988154688    0.0036052172698580348    0.0036238619191991455    0.0036429741030025438    0.0036621970222450043    0.0036556343790554806    0.0036518658488878942    0.0036536044439067442    0.0036556891782241496    0.003658024736586078     0.003660353180843816
0.0030000000000000027     0.019996362424163867     0.00962915459347357      0.007485956752098686     0.006283765656681886     0.005602067991943917     0.005186838544294607     0.004906255790858527     0.004722947756810681     0.004601370159724699     0.004506598362245563     0.0044030247613451754    0.004319084947918292     0.004237380885166349     0.004167190298946529     0.004105935706366658     0.004053562670387515     0.004010151450037352     0.003974350693893152     0.003945096504180611     0.0039216094233752476    0.0039025744905360977    0.0038876162202550733    0.0038760360813473527    0.003867529424050317     0.003861904763957012     0.0038588701052419488    0.0038583518082391612    0.0038601124695543075    0.0038640249792506543    0.0038699321207271765    0.0038776592898217416    0.0038870743248675707    0.0038980283563452072    0.003910398705081339     0.003924078550549959     0.003938965452875623     0.003954966893187302     0.003971971845857329     0.003989864050904192     0.004008519363596009     0.004027807788673721     0.004047567074597169     0.004067451105368048     0.004094988307640056     0.004109456632129254     0.00411196692543946      0.004110831915212571     0.004107804778686225     0.004104149984573879
0.0033333333333333375     0.01999788782387641      0.010398247170719637     0.008143250851677167     0.0068656477821558495    0.006134116321658272     0.005684778673984387     0.005379676214679642     0.005179022875993174     0.005044917217976549     0.004940413536240722     0.004827676913617302     0.004736283892555422     0.004647592559644361     0.004571410561900603     0.0045048048457810045    0.004447803794509033     0.004400406018463404     0.004361191597429885     0.004329040203060275     0.004303105630348582     0.004282003936848697     0.004265314844915586     0.004252286071355203     0.004242580263027071     0.004235975218860147     0.004232151534110117     0.004231017100951145     0.004232311330122865     0.004235891112277049     0.004241581551010926     0.004249190830530495     0.004258571945352517     0.004269560202182842     0.004282019831973314     0.004295831741124738     0.0043108835674869565    0.004327074260774547     0.004344285649903457     0.004362395160701993     0.004381273533511401     0.004400787946689769     0.004420778100164617     0.004440918094690254     0.004463704540727669     0.004475967521183007     0.004479687984625073     0.00448054125818183      0.004479849189503387     0.0044784890845059495
0.0036666666666666688     0.01999941322358895      0.011167339747965705     0.008800544951255648     0.007447529907629812     0.0066661646513726264    0.0061827188036741665    0.005853096638500756     0.005635097995175667     0.005488464276228398     0.0053742287102358805    0.005252329065889428     0.0051534828371925506    0.005057804234122373     0.004975630824854677     0.0049036739851953505    0.004842044918630552     0.004790660586889456     0.004748032500966616     0.004712983901939939     0.004684601837321917     0.0046614333831612965    0.004643013469576098     0.004628536061363053     0.0046176311020038234    0.004610045673763281     0.004605432962978286     0.004603682393663128     0.004604510190691423     0.004607757245303444     0.004613230981294675     0.0046207223712392475    0.004630069565837462     0.004641092048020476     0.004653640958865288     0.004667584931699516     0.004682801682098289     0.004699181628361792     0.0047165994539495855    0.004734926270499794     0.004754027703426792     0.004773768104705817     0.004793989125732065     0.004814385084012461     0.004832420773815282     0.004842478410236759     0.004847409043810685     0.0048502506011510885    0.004851893600320548     0.0048528281844380195
0.0040000000000000036     0.02000093862330149      0.011936432325211773     0.00945783905083413      0.008029412033103775     0.007198212981086981     0.006680658933363947     0.006326517062321871     0.00609117311435816      0.005932011334480247     0.00580804388423104      0.005676981218161553     0.005570681781829679     0.005468015908600386     0.0053798510878087505    0.0053025431246096965    0.005236286042752071     0.005180915155315507     0.005134873404503349     0.005096927600819603     0.005066098044295251     0.005040862829473896     0.005020712094236611     0.005004786051370902     0.004992681940980577     0.004984116128666416     0.004978714391846454     0.004976347686375111     0.00497670905125998      0.004979623378329839     0.004984880411578425     0.004992253911948001     0.005001567186322407     0.005012623893858111     0.005025262085757263     0.005039338122274295     0.005054719796709621     0.005071288995949037     0.005088913257995714     0.005107457380297595     0.005126781873342184     0.005146748262721865     0.005167200151299513     0.005187852073334667     0.0052011370069028956    0.005208989299290512     0.005215130102996297     0.005219959944120348     0.00522393801113771      0.00522716728437009
0.004333333333333338      0.020000544950435226     0.01255702269325191      0.010031376353013523     0.008555647520724356     0.007686930911409752     0.0071412750668343955    0.006766103141874544     0.006515140845741998     0.006344115567853615     0.0062109332967058735    0.006071876925183453     0.005959055966964398     0.005850436502835978     0.005757181700437717     0.005675277193094867     0.005605026273806101     0.005546145193483725     0.0054970442764165186    0.005456460407397114     0.005423358581639773     0.0053961838874807145    0.005374382438757033     0.005357054347991333     0.005343766462041549     0.005334202872412044     0.0053279662953490065    0.005324906869964074     0.005324698369959563     0.005327151245728967     0.005332040088807539     0.005339125177120964     0.005348217506506293     0.005359107933177644     0.005371623946560714     0.0053856114919762586    0.00540093040954193      0.005417455546152166     0.005435049370459359     0.0054535721242839974    0.005472880570457098     0.005492833901802414     0.005513276853687707     0.005533938020960441     0.005551146682837263     0.005558771311569868     0.005564101175905561     0.005568042644565824     0.005571147637783281     0.005573607576808136
0.00466666666666667       0.020000151277568958     0.013177613061292046     0.010604913655192914     0.009081883008344937     0.008175648841732525     0.007601891200304844     0.007205689221427216     0.006939108577125835     0.0067562198012269805    0.0066138227091807065    0.006466772632205351     0.006347430152099116     0.00623285709707157      0.006134512313066683     0.006048011261580036     0.00597376650486013      0.005911375231651942     0.005859215148329686     0.005815993213974625     0.0057806191189842945    0.005751504945487532     0.005728052783277455     0.005709322644611763     0.00569485098310252      0.00568428961615767      0.005677218198851558     0.0056734660535530355    0.005672687688659145     0.005674679113128094     0.005679199766036653     0.005685996442293926     0.005694867826690179     0.005705591972497176     0.005717985807364164     0.005731884861678221     0.005747141022374237     0.005763622096355294     0.005781185482923004     0.005799686868270399     0.00581897926757201      0.005838919540882962     0.005859353556075899     0.0058800239685862146    0.00590115635877163      0.005908553323849222     0.005913072248814825     0.005916125345011299     0.005918357264428852     0.0059200478692461814
0.0050000000000000044     0.01999975760470269      0.013798203429332181     0.011178450957372308     0.009608118495965517     0.008664366772055296     0.008062507333775294     0.0076452753009798894    0.007363076308509673     0.007168324034600347     0.007016712121655539     0.006861668339227251     0.006735804337233834     0.006615277691307162     0.006511842925695649     0.006420745330065206     0.006342506735914161     0.0062766052698201595    0.006221386020242855     0.006175526020552135     0.0061378796563288165    0.006106826003494351     0.006081723127797877     0.006061590941232192     0.006045935504163491     0.006034376359903297     0.00602647010235411      0.006022025237141998     0.006020677007358728     0.0060222069805272215    0.006026359443265766     0.006032867707466888     0.006041518146874065     0.006052076011816709     0.006064347668167615     0.006078158231380185     0.006093351635206545     0.006109788646558423     0.006127321595386649     0.006145801612256802     0.006165077964686923     0.0061850051799635115    0.006205430258464092     0.006226109916211988     0.006251166034705997     0.0062583353361285775    0.0062620433217240885    0.006264208045456775     0.006265566891074424     0.006266488161684227
0.005333333333333339      0.019999859286622235     0.014289940671176213     0.011673935456921986     0.010080947962865697     0.009111240538726742     0.008487186861991645     0.00805242813395736      0.007756433511629966     0.007550635769065027     0.0073904132582412844    0.00722849866811694      0.007096999825914311     0.006971490922139979     0.006863812340667076     0.006768841329861623     0.006687222032821307     0.006618284928160152     0.0065603719882585156    0.006512151587591317     0.006472434068018125     0.0064395963090605746    0.006412954301634114     0.006391501029428023     0.0063747147471180845    0.0063621826655904925    0.006353442426434572     0.006348280239168344     0.00634631580522384      0.006347317737220159     0.006351017551406943     0.006357138405938226     0.00636545658602234      0.006375727206482405     0.00638774816457965      0.006401335641682921     0.00641632706324143      0.006432577129287442     0.006449934520822558     0.00646824699158829      0.006487360976721622     0.006507129038144809     0.00652739913079406      0.006547939634280021     0.006567616901642251     0.006575256479350213     0.006579498036098361     0.0065821656175422145    0.006583977971593974     0.0065852859012789765
0.0056666666666666705     0.019999960968541775     0.014781677913020243     0.012169419956471661     0.010553777429765874     0.009558114305398185     0.008911866390207995     0.008459580966934827     0.008149790714750258     0.007932947503529705     0.007764114394827029     0.007595328997006629     0.007458195314594786     0.007327704152972797     0.007215781755638501     0.007116937329658037     0.007031937329728451     0.006959964586500144     0.0068993579562741745    0.006848777154630497     0.006806988479707433     0.0067723666146267975    0.0067441854754703495    0.0067214111176238526    0.006703493990072677     0.006689988971277686     0.006680414750515031     0.00667453524119469      0.006671954603088951     0.0066724284939130955    0.006675675659548119     0.006681409104409563     0.006689395025170615     0.006699378401148101     0.006711148660991683     0.006724513051985657     0.006739302491276314     0.00675536561201646      0.006772547446258465     0.006790692370919778     0.0068096439887563205    0.0068292528963261045    0.006849368003124027     0.006869769352348053     0.006884067768578505     0.006892177622571848     0.0068969527504726316    0.006900123189627653     0.006902389052113523     0.006904083640873726
0.006000000000000005      0.02000006265046132      0.015273415154864274     0.012664904456021338     0.011026606896666053     0.010004988072069631     0.009336545918424347     0.008866733799912296     0.00854314791787055      0.008315259237994385     0.008137815531412773     0.007962159325896319     0.007819390803275261     0.007683917383805614     0.007567751170609926     0.007465033329454453     0.007376652626635597     0.007301644244840137     0.007238343924289834     0.0071854027216696785    0.007141542891396742     0.0071051369201930205    0.007075416649306585     0.007051321205819682     0.0070322732330272706    0.00701779527696488      0.007007387074595492     0.007000790243221035     0.006997593400954062     0.006997539250606033     0.007000333767689296     0.0070056798028809       0.007013333464318889     0.007023029595813796     0.007034549157403717     0.007047690462288393     0.007062277919311199     0.0070781540947454785    0.007095160371694374     0.007113137750251266     0.00713192700079102      0.007151376754507401     0.007171336875453994     0.007191599070416086     0.007200518635514759     0.007209098765793482     0.007214407464846902     0.007218080761713092     0.007220800132633072     0.007222881380468475
0.00633333333333334       0.020000036366092693     0.01565754841993542      0.013089090230815711     0.011448595491615332     0.010411621687909808     0.009726730282305788     0.009242869193629925     0.008907389114163701     0.00866943205980311      0.008484069316596215     0.008302601751111553     0.00815502695952135      0.008015466111981513     0.007895832607619243     0.007789918994843061     0.0076987362877559236    0.007621152894864029     0.007555524098954106     0.007500508097182137     0.007454793755289093     0.00741677628584696      0.0073856484355332985    0.007360334609064736     0.007340232427856769     0.007324833429857249     0.007313622124759367     0.007306317202839508     0.0073024951161649344    0.0073018869474565625    0.007304188062059298     0.007309094001423859     0.007316352699880745     0.007325691213913725     0.007336883792042271     0.007349721098052034     0.007364022161214653     0.00737962421323357      0.007396366032664698     0.007414086141184074     0.007432623215759399     0.007451824247234999     0.007471539895873089     0.007491571134957066     0.007502855538660512     0.00751120112617438      0.007516254598145437     0.007519686915280799     0.007522187798184416     0.0075240776300355425
0.006666666666666671      0.020000010081724064     0.016041681685006564     0.013513276005610083     0.011870584086564608     0.010818255303749984     0.010116914646187228     0.009619004587347555     0.00927163031045685      0.009023604881611833     0.008830323101779657     0.008643044176326786     0.008490663115767438     0.008347014840157414     0.00822391404462856      0.008114804660231668     0.008020819948876249     0.007940661544887921     0.007872704273618377     0.007815613472694594     0.007768044619181444     0.007728415651500899     0.007695880221760011     0.007669348012309789     0.007648191622686265     0.007631871582749617     0.007619857174923242     0.00761184416245798      0.007607396831375806     0.007606234644307092     0.0076080423564293       0.007612508199966817     0.007619371935442601     0.007628352832013653     0.007639218426680825     0.007651751733815676     0.007665766403118107     0.00768109433172166      0.007697571693635021     0.007715034532116882     0.007733319430727779     0.007752271739962597     0.0077717429162921835    0.0077915431994980446    0.007805192441806263     0.007813303486555278     0.00781810173144397      0.007821293068848507     0.007823575463735757     0.00782527387960261
0.007000000000000006      0.019999983797355434     0.01642581495007771      0.013937461780404455     0.012292572681513885     0.011224888919590162     0.010507099010068669     0.009995139981065184     0.009635871506750002     0.009377777703420558     0.009176576886963099     0.00898348660154202      0.008826299272013527     0.008678563568333313     0.008551995481637877     0.008439690325620275     0.008342903609996575     0.008260170194911813     0.008189884448282649     0.008130718848207054     0.008081295483073795     0.008040055017154839     0.008006112007986723     0.007978361415554842     0.007956150817515762     0.007938909735641986     0.007926092225087118     0.007917371122076453     0.007912298546586677     0.007910582341157622     0.007911896650799301     0.007915922398509776     0.007922391171004456     0.007931014450113582     0.007941553061319379     0.007953782369579318     0.007967510645021561     0.00798256445020975      0.007998777354605345     0.00801598292304969      0.008034015645696158     0.008052719232690195     0.008071945936711278     0.008091515264039024     0.008107529344952015     0.008115405846936175     0.008119948864742505     0.008122899222416213     0.0081249631292871       0.008126470129169679