% Model:              Onedradial_solutes_zeroconc.mph
% Version:            COMSOL 5.6.0.280
% Date:               Apr 20 2021, 08:49
% Dimension:          1
% Nodes:              1741
% Expressions:        49
% Description:        Liniengraph
% R                       Height                   Height                   Height                   Height                   Height                   Height                   Height                   Height                   Height                   Height                   Height                   Height                   Height                   Height                   Height                   Height                   Height                   Height                   Height                   Height                   Height                   Height                   Height                   Height                   Height                   Height                   Height                   Height                   Height                   Height                   Height                   Height                   Height                   Height                   Height                   Height                   Height                   Height                   Height                   Height                   Height                   Height                   Height                   Height                   Height                   Height                   Height                   Height                   Height
0                         -100.00214846587366      -103.00753465159146      -106.06955588383725      -109.18182143330445      -112.35651345787768      -115.60280395971229      -118.929092010591        -122.34327377099893      -125.85345096264848      -129.4711110767742       -133.2056649309638       -137.06984261462395      -141.07432678450965      -145.2351873347562       -149.56504444668718      -154.0839541000455       -158.8074068464629       -163.75862398473356      -168.9597671847636       -174.43975751028796      -180.22882187275317      -186.36461464402174      -192.88743786305133      -199.84823645423893      -207.301607640637        -215.31881509292194      -223.97639420469332      -233.37772002549707      -243.63444296143396      -254.89708080256287      -267.3417023391243       -281.206237218015        -296.7811290786264       -314.47006301779123      -334.7794147809233       -358.4609783432629       -386.5443719113992       -420.6171653087703       -463.2022014698276       -518.7150251688715       -596.0718482932197       -718.4719469717365       -1004.851092549745       -14496.790703693472      -14716.803768842268      -14817.733722845487      -14871.516208478499      -14903.600117341872      -14924.40833977872
3.333333333333348E-4      -100.00213617415555      -103.0075210849438       -106.0695408846393       -109.1818048273569       -112.35649504138206      -115.60278349666592      -118.92906922702913      -122.34324834694783      -125.85342253052504      -129.47107919259125      -133.20562909191509      -137.06980219717434      -141.0742810859819       -145.2351354662051       -149.56498540147535      -154.0838865848153       -158.80732938630462      -163.75853468787744      -168.9596637773449       -174.43963711392982      -180.2286809660281       -186.36444866907203      -192.8872411611229       -199.84800152094996      -207.30132500195708      -215.31847180687362      -223.97597361026106      -233.37719850771663      -243.63378940744846      -254.8962497643594       -267.34063022631324      -281.2048273747658       -296.7792406843506       -314.46746626262694      -334.77575592219966      -358.45562376741356      -386.5362081459773       -420.604074303864        -463.17966875437634      -518.6722185481489       -595.9773696684448       -718.1974825361353       -1002.9852936665246      -6434.220981811507       -6781.598436744225       -7046.464037873325       -7260.369202961612       -7440.598714212901       -7596.9160814404695
6.666666666666661E-4      -100.00212408026066      -103.00750773586742      -106.06952612598742      -109.1817884877241       -112.35647692023849      -115.6027633617941       -118.9290468088585       -122.34322333063677      -125.8533945543862       -129.47104781975895      -133.2055938276481       -137.06976242793928      -141.07423612037297      -145.23508442953693      -149.56492730325868      -154.0838201524411       -158.8072531685248       -163.75844682327372      -168.95956202853557      -174.43951864872415      -180.22854231950612      -186.36428535652368      -192.88704761461622      -199.8477703565683       -207.30104689776874      -215.31813402872925      -223.97555976473464      -233.37668535927338      -243.63314634324118      -254.8954320672152       -267.3395753288715       -281.2034401777844       -296.7773826366886       -314.4649112650894       -334.7721559513623       -358.4503554909949       -386.5281762376467       -420.5911954441801       -463.1575033410565       -518.6301177461097       -595.8844887805634       -717.928001325407        -1001.1683489621681      -2101.036628595498       -2516.816359224768       -2869.676564228054       -3169.449506755548       -3429.026275091303       -3657.815567868013
0.0010000000000000009     -100.00211218418906      -103.00749460436231      -106.06951160788161      -109.18177241440611      -112.356459094447        -115.60274355509692      -118.92902475607917      -122.34319872206575      -125.85336703423202      -129.47101695827735      -133.20555913816287      -137.06972330691883      -141.07419188768287      -145.23503422475176      -149.56487015203726      -154.083754802923        -158.80717819312355      -163.75836039092246      -168.9594619383357       -174.439402114671        -180.22840593318736      -186.3641247063768       -192.8868572235315       -199.8475429610941       -207.30077332807207      -215.31780175848886      -223.9751526681141       -233.37618058016741      -243.63251376881223      -254.89462771113025      -267.3385376467992       -281.202075627071        -296.7755549356405       -314.4623980251787       -334.76861486841153      -358.44517351400725      -386.5202761864076       -420.5785287297186       -463.1357052298685       -518.5887227627546       -595.7932056295759       -717.6635033395519       -999.4002584366762       -1497.2376440454464      -1922.4575362838998      -2287.3713019096786      -2598.757119860309       -2868.882799977079       -3107.1067990613537
0.0013333333333333357     -100.00210047655165      -103.00748168008364      -106.06949731888459      -109.18175659474029      -112.35644154996436      -115.60272406097054      -118.92900305131765      -122.34317450184766      -125.8533399483814       -129.4709865838328       -133.20552499612964      -137.06968480329147      -141.07414835306244      -145.2349848122946       -149.56481390278233      -154.08369048477195      -158.80710440102627      -163.75827532272         -168.9593634278776       -174.43928741994208      -180.22827169959518      -186.36396659202723      -192.88666983781698      -199.8473191552975       -207.30050407722365      -215.3174747342073       -223.97475199941994      -233.37568377232697      -243.63189118519898      -254.89383606145455      -267.33751636103995      -281.20073264499615      -296.77375613683273      -314.45992455474186      -334.76512986837105      -358.4400737229089       -386.51250170032773      -420.5660640201281       -463.1142568108702       -518.5479995538961       -595.703442078216        -717.4037342848387       -997.6777070079773       -1488.5442976999284      -1902.1585353460632      -2252.3734814987024      -2547.9756481130366      -2802.294905495972       -3025.2010525937
0.001666666666666667      -100.00208894881284      -103.00746895362695      -106.06948324859889      -109.18174101721533      -112.35642427402412      -115.60270486522961      -118.92898167877993      -122.34315065235802      -125.85331327712443      -129.47095667432203      -133.20549137670324      -137.06964688903793      -141.07410548483082      -145.23493615620671      -149.56475851455906      -154.08362715118         -158.80703173852908      -163.75819155675435      -168.95926642546368      -174.43917448105742      -180.2281395210241       -186.36381089838108      -192.88648532106328      -199.84709877624437      -207.30023894918654      -215.31715271775593      -223.97435746685758      -233.3751945738764       -243.63127813881042      -254.893056541251        -267.3365107270249       -281.1994102519431       -296.77198492727797      -314.4574890465115       -334.7616984015302       -358.4350523786636       -386.5048470606712       -420.55379209977167      -463.0931420828886       -518.5079171968123       -595.6151272156129       -717.1484640736373       -995.9977830495618       -1480.2461035766576      -1883.2369441470207      -2220.4718004510437      -2502.55675234428        -2743.6666850750926      -2954.016806209897
0.0020000000000000018     -100.00207760097268      -103.0074564249923       -106.0694693970245       -109.18172568183125      -112.35640726662632      -115.60268596787412      -118.92896063846612      -122.3431271735969       -125.85328702046112      -129.47092722974517      -133.2054582798838       -137.06960956415816      -141.07406328298808      -145.234888256488        -149.5647039873675       -154.0835648021472       -158.80696020563192      -163.75810909302547      -168.95917093109404      -174.4390632980172       -180.22800939747418      -186.36365762543855      -192.8863036732705       -199.84688182393464      -207.29997794396078      -215.31683570913484      -223.97396907042702      -233.3747129848158       -243.63067462964665      -254.8922891505197       -267.33552074475404      -281.19810844791186      -296.7702413069761       -314.4550915004879       -334.7583204678891       -358.4301094812714       -386.49731226743785      -420.5417129686494       -463.07236104592374      -518.4684756915032       -595.5282610417669       -716.8976927059483       -994.3604865614299       -1472.3430616756345      -1865.6927626867716      -2191.666258766702       -2462.5004325540413      -2692.99813871444        -2893.554059909945
0.0023333333333333366     -100.002066424883        -103.00744408520211      -106.06945575423585      -109.18171057759926      -112.35639051558383      -115.60266735536278      -118.92893991529895      -122.34310404873953      -125.85326115957615      -129.47089822900216      -133.20542568195378      -137.06957280190457      -141.07402171729132      -145.23484107881197      -149.56465028213077      -154.0835033929903       -158.80688975106864      -163.75802787243154      -168.95907687632564      -174.4389537911308       -180.2278812356753       -186.36350666333044      -192.88612476422162      -199.84666814283054      -207.29972087440885      -215.31652348102608      -223.9735865315813       -233.3742386596994       -243.6300802247118       -254.89153333852147      -267.3345457034718       -281.19682629778         -296.7685240225859       -314.45273019152495      -334.7549936336356       -358.4252414617492       -386.48989186220615      -420.5298178311804       -463.05189842989097      -518.4296455348033       -595.4427759365094       -716.651201131892        -992.763081302254        -1464.7896842491416      -1849.2871653344903      -2165.2534076112006      -2426.350152635854       -2647.842745995927       -2840.207760181451
0.002666666666666668      -100.00205541310413      -103.00743192605948      -106.06944231117049      -109.181695694486        -112.35637400976943      -115.60264901533168      -118.92891949551255      -122.34308126242456      -125.8532356772903       -129.47086965282787      -133.20539356125832      -137.0695365778555       -141.07398076012745      -145.23479459183676      -149.56459736317015      -154.08344288291164      -158.80682032803108      -163.75794784101046      -168.9589841986674       -174.4388458876379       -180.22775495046824      -186.36335791174218      -192.88594847502392      -199.84645759092086      -207.29946756966817      -215.31621582588164      -223.9732095959991       -233.37377128312647      -243.62949452867164      -254.89078860242236      -267.3335849542508       -281.19556294777783      -296.76683192981767      -314.4504035446095       -334.7517156768153       -358.42044506191456      -386.4825808621993       -420.5180986589967       -463.03174029907046      -518.3913998110559       -595.3586102614687       -716.4087902421845       -991.2031468995942       -1457.5497157736843      -1833.8522705749074      -2140.794373455891       -2393.2848710737803      -2606.9327637840256      -2792.2360822395854
0.0030000000000000027     -100.00204456563614      -103.00741994756443      -106.06942906782845      -109.18168103249145      -112.35635774918315      -115.60263094778085      -118.92889937910691      -122.34305881465195      -125.85321057360359      -129.47084150122237      -133.2053619177974       -137.06950089201104      -141.07394041149652      -145.23474879556247      -149.5645452304857       -154.0833832719112       -158.80675193651942      -163.75786899876232      -168.95889289811936      -174.43873958753855      -180.227630541853        -186.3632113706738       -192.8857748056773       -199.84625016820567      -207.29921802973877      -215.31591274370152      -223.9728382636804       -233.37331085509712      -243.6289175415261       -254.8900549422224       -267.332638497091        -281.1943183979055       -296.7651650286716       -314.4481115597417       -334.7484865974285       -358.4157202817675       -386.47537926741757      -420.5065554520984       -463.0118866534624       -518.3537385202611       -595.2757640166448       -716.1704600368262       -989.6806833534504       -1450.6231562492637      -1819.3880784080243      -2118.289156300775       -2363.3045878678186      -2570.2681920787363      -2749.6390260843496
0.0033333333333333375     -100.00203387536232      -103.00740814187607      -106.06941601554078      -109.18166658201805      -112.35634172318083      -115.60261314088321      -118.92887955291377      -122.34303669072722      -125.85318583208287      -129.4708137557571       -133.2053307308564       -137.06946572101         -141.0739006449847       -145.23470366000848      -149.56449384994795      -154.08332452096312      -158.80668453175812      -163.75779129406806      -168.95880291490406      -174.4386348212319       -180.2275079283686       -186.36306694416712      -192.88560364245234      -199.8460457388409       -207.29897209117848      -215.31561403595134      -223.9724722913495       -233.37285707390959      -243.6283488851125       -254.88933187693036      -267.331705711257        -281.1930918314907       -296.7635222245867       -314.44585273037274      -334.74530427014207      -358.41106400488457      -386.46828231206285      -420.4951805321901       -462.99232416645793      -518.316635928788        -595.194178299955        -715.9360205415915       -988.1934087681046       -1443.9770876660818      -1805.7480863251033      -2097.367134584366       -2335.732418174263       -2536.8216125524345      -2711.022092488057
0.0036666666666666688     -100.00202333575909      -103.00739650180675      -106.06940314636094      -109.18165233426794      -112.35632592200544      -115.60259558379738      -118.92886000486219      -122.34301487718041      -125.85316143766435      -129.47078639953907      -133.20529998144687      -137.06943104343804      -141.0738614363791       -145.23465915769253      -149.56444319027167      -154.08326659429346      -158.80661807270303      -163.75771467961053      -168.95871419422573      -174.4385315249175       -180.22738703534273      -186.36292454426084      -192.88543488109755      -199.84584417830408      -207.29872960416685      -215.31531952064373      -223.97211145600716      -233.37240966300928      -243.62778821278974      -254.88861896565012      -267.3307860277609       -281.1918824999489       -296.76190251427045      -314.4436256756004       -334.7421667469202       -358.4064733749252       -386.4612856283253       -420.48396686282797      -462.9730406274679       -518.2800684658894       -595.1137992027478       -715.7052983521842       -986.7392917848965       -1437.5847219674151      -1792.8242270000706      -2077.7771106688974      -2310.138908587445       -2505.9735673637306      -2675.5773845668973
0.0040000000000000036     -100.00201294682645      -103.00738502735655      -106.06939046028889      -109.18163828924115      -112.35631034565702      -115.60257827652342      -118.92884073495213      -122.34299337401147      -125.853137390348        -129.47075943256843      -133.20526966956893      -137.06939685929513      -141.07382278567988      -145.23461528861463      -149.56439325145698      -154.0832094919023       -158.80655255935423      -163.75763915538968      -168.95862673608445      -174.4384296985955       -180.22726786277545      -186.3627841709551       -192.88526852161317      -199.84564548659526      -207.2984905687038       -215.31502919777873      -223.97175575765337      -233.37196862239628      -243.62723552455785      -254.8879162083817       -267.3298794466027       -281.19069040328014      -296.760305897723        -314.4414303954248       -334.73907402776314      -358.4019483918895       -386.454389216205        -420.4729144440124       -462.9540360364926       -518.2440361315657       -595.0346267250237       -715.4782934686048       -985.3183324038265       -1431.4460591532638      -1780.6165004329264      -2059.5190845543702      -2286.524059107367       -2477.724056512625       -2643.304902320872
0.004333333333333338      -100.00200270231227      -103.00737371163704      -106.0693779497089       -109.18162443850605      -112.35629498478443      -115.60256120867113      -118.92882173161519      -122.34297216831116      -125.85311367569706      -129.4707328386553       -133.20523977702433      -137.0693631480581       -141.0737846696819       -145.23457202643644      -149.56434400352063      -154.08315317950488      -158.80648795237602      -163.75756467605783      -168.95854048796514      -174.43832928112096      -180.2271503391026       -186.36264573994995      -192.88510446408705      -199.84544954437484      -207.29825484120528      -215.31474289294422      -223.97140498257158      -233.37153368702837      -243.62669048820663      -254.8872231825852       -267.3289854224862       -281.1895148240747       -296.7587314134407       -314.43926556647546      -334.7360242458236       -358.39748631854644      -386.44758889018647      -420.4620165333675       -462.9352986944681       -518.208516347173        -594.9566092517412       -715.2548401096707       -983.9286099335424       -1425.536590173013       -1769.0291534643559      -2042.3760004320875      -2264.5233829192966      -2451.554031271378       -2613.5340363364667
0.00466666666666667       -100.0019925964645       -103.0073625483109       -106.06936560761439      -109.1816107743054       -112.35627983078483      -115.60254437068141      -118.92880298420825      -122.34295124820287      -125.8530902804296       -129.4707066029051       -133.2052102870709       -137.06932989084572      -141.0737470670367       -145.2345293469265       -149.5642954188782       -154.08309762555913      -158.80642421557948      -163.75749119989504      -168.95845540155406      -174.43823021624064      -180.22703439848533      -186.36250917368974      -192.88494261660065      -199.8452562418515       -207.29802228957496      -215.31446044568295      -223.97105893414556      -233.37110461307148      -243.62615279810927      -254.88653949953425      -267.32810345375526      -281.1883551023425       -296.7571781768869       -314.4371299713365       -334.7330156837601       -358.39308463696534      -386.4408808003025       -420.45126692959064      -462.9168178428694       -518.1734883558789       -594.8796993684638       -715.0347863729319       -982.5684047362183       -1419.8360229969117      -1757.988927890897       -2026.1919732401318      -2243.8870065269634      -2427.1196519673395      -2585.8319056176724
0.0050000000000000044     -100.0019826292832       -103.00735153737813      -106.06935343400541      -109.18159729663928      -112.35626488365824      -115.60252776255435      -118.92878449273134      -122.34293061368659      -125.85306720454568      -129.47068072531786      -133.20518119970868      -137.06929708765807      -141.0737099777442       -145.23448725008495      -149.56424749752978      -154.08304283006507      -158.80636134896466      -163.75741872690136      -168.95837147685117      -174.43813250395468      -180.22692004092363      -186.36237447217448      -192.884782979154        -199.8450655790253       -207.2977929138129       -215.31418185599497      -223.97071761237538      -233.37068140052554      -243.6256224542659       -254.88586515922893      -267.32723354040996      -281.1872112380837       -296.7556461880616       -314.4350236100081       -334.7300483415725       -358.3887433471464       -386.43426494655336      -420.4406656326818       -462.89859348169676      -518.1389521576839       -594.8038970751917       -714.8181322583882       -981.2377168118546       -1414.3443576249606      -1747.4958237125506      -2010.9670029785038      -2224.614929930369       -2404.42091860051        -2560.198510164489
0.005333333333333339      -100.00197279524616      -103.00734067275457      -106.06934142215532      -109.18158399806056      -112.35625013514542      -115.60251137511291      -118.9287662469667       -122.34291025336033      -125.85304443529411      -129.47065519159418      -133.20515249886435      -137.06926472036835      -141.07367338130885      -145.2344457126486       -149.564200212993        -154.08298876274105      -158.80629931778878      -163.75734721702406      -168.9582886674734       -174.43803609025767      -180.2268072032097       -186.3622415609479       -192.8846254635019       -199.8448774504923       -207.29756658710212      -215.3139069698358       -223.97038082850247      -233.3702638153014       -243.6250991632656       -254.8851997884814       -267.3263752008487       -281.18608259769627      -296.75413459780003      -314.432945313771        -334.72712057063654      -358.3844600319665       -386.42773763324135      -420.4302066901614       -462.8806152851337       -518.1048878345481       -594.729156894228        -714.6047322733785       -979.9349159359493       -1409.0429072309817      -1737.4841385683906      -1996.5640105562632      -2206.490405788369       -2383.162430389862       -2536.2645483692554
0.0056666666666666705     -100.00196308925584      -103.00732994882416      -106.06932956585503      -109.18157087169486      -112.35623557762254      -115.602495199886        -118.92874823748251      -122.34289015669911      -125.85302196090461      -129.47062998853454      -133.20512416970107      -137.0692327722441       -141.07363725881174      -145.23440471314393      -149.56415354082293      -154.08293539563493      -158.80623808998163      -163.75727663329138      -168.95820693060568      -174.437940925299        -180.2266958269982       -186.36211037128132      -192.88446998818762      -199.84469175895757      -207.29734319238156      -215.31363564501203      -223.97004840829086      -233.36985164132102      -243.62458265427293      -254.88454304281927      -267.32552799053025      -281.1849685963403       -296.75264262229774      -314.43089400387925      -334.72423084927954      -358.38023246050903      -386.42129544955446      -420.41988460886216      -462.8628737255768       -518.0712770137592       -594.6554369066153       -714.394452634854        -978.6585349384922       -1403.915973491392       -1727.9021458011307      -1982.8802433727276      -2189.356477775453       -2363.1354871791063      -2513.773815291219
0.006000000000000005      -100.00195351131235      -103.00731936558698      -106.06931786510451      -109.18155791754221      -112.35622121108962      -115.6024792368736       -118.92873046427881      -122.342870323703        -125.85299978137725      -129.47060511613893      -133.2050962122189       -137.0692012432853       -141.07360161025292      -145.23436425157098      -149.56410748101956      -154.08288272874665      -158.80617766554323      -163.7572069757034       -168.95812626624812      -174.43784700907872      -180.2265859122891       -186.3619809031748       -192.88431655321136      -199.84450850442107      -207.2971227296514       -215.31336788152367      -223.96972035174068      -233.36944487858443      -243.62407292728813      -254.8838949222425       -267.32469190945466      -281.1838692340161       -296.75117026155493      -314.42886968033315      -334.7213791775015       -358.37606063277406      -386.41493839549275      -420.4096993887843       -462.8453688030263       -518.0381196953176       -594.5827371123538       -714.1872933428152       -977.4085738194834       -1398.9635564061912      -1718.749845410771       -1969.9157014278976      -2173.213145891623       -2344.340088968245       -2492.7263109303804
0.00633333333333334       -100.00194405651402      -103.00730891764259      -106.06930631393317      -109.18154512899243      -112.35620702821576      -115.6024634779301       -118.92871291828627      -122.34285074425146      -125.8529778853939       -129.47058056171508      -133.20506861215102      -137.0691701174026       -141.0735664174404       -145.23432430728127      -149.5640620100771       -154.08283073519823      -158.80611801363588      -163.75713820870908      -168.9580466332308       -174.43775429366153      -180.2264774029791       -186.36185309054105      -192.88416508024665      -199.84432759332654      -207.296905086349        -215.31310354264158      -223.96939649131176      -233.36904331931783      -243.62356972188553      -254.88325509551996      -267.32386653016977      -281.182783948369        -296.74971676190745      -314.4268713058803       -334.71856409218026      -358.37194240373367      -386.40866319167145      -420.39964574871124      -462.82809135837186      -518.0053982204621       -594.5110172389847       -713.9831260414844       -976.1836383683025       -1394.171118350522       -1709.980385717884       -1957.578777875018       -2157.921965481834       -2326.5935066458387      -2472.8989057510316
0.006666666666666671      -100.00193472032225      -103.00729859999076      -106.06929490681273      -109.18153249992497      -112.35619302221302      -115.60244791551325      -118.92869559110723      -122.34283140897355      -125.85295626247499      -129.47055631351085      -133.20504135628755      -137.06913937969827      -141.07353166352974      -145.23428486115594      -149.564017106231        -154.08277939010244      -158.8060591057059       -163.7570702993909       -168.95796799343364      -174.43766273466312      -180.2263702471208       -186.3617268721881       -192.88401549676954      -199.84414893904867      -207.29669015825127      -215.31284250176682      -223.96907667187673      -233.3686467711412       -243.6230727969352       -254.88262325596335      -267.32305145689867      -281.18171221872063      -296.74828142555253      -314.424897920164        -334.7157842386883       -358.3678757874847       -386.40246680213664      -420.3897187998503       -462.81103291430554      -517.9730962497343       -594.4402400487131       -713.7818323211048       -974.982467883645        -1389.5262937500472      -1701.55602095948        -1945.7985059491275      -2143.378506391846       -2309.7604468361737      -2454.128608673517
0.007000000000000006      -100.00192550273707      -103.00728841263151      -106.06928364374325      -109.18152003033984      -112.35617919308145      -115.60243254962315      -118.92867848274173      -122.34281231786935      -125.8529349126205       -129.47053237152633      -133.2050144446285       -137.06910903017234      -141.073497348521        -145.23424591319494      -149.56397276948132      -154.08272869345933      -158.8060009417534       -163.7570032477489       -168.9578903468567       -174.43757233208356      -180.22626444471425      -186.361602248116        -192.88386780277997      -199.84397254158745      -207.29647794535822      -215.3125847588994       -223.96876089343573      -233.36825523405452      -243.62258215243722      -254.88199940357276      -267.3222466896415       -281.1806540450711       -296.7468642524904       -314.42294952318457      -334.71303961702546      -358.36386078402717      -386.3963492268885       -420.37991854220195      -462.79419347082734      -517.9412137831345       -594.3704055415394       -713.5834121816766       -973.8050623655112       -1385.0290826047678      -1693.4767511355587      -1934.5748856502264      -2129.5827686216585      -2293.8409095392503      -2436.4154196978393