<?xml version="1.0"?>
<VTKFile type="UnstructuredGrid" version="0.1" byte_order="LittleEndian">
  <UnstructuredGrid>
    <Piece NumberOfCells="735" NumberOfPoints="1024">
      <CellData Scalars="p (Pa)">
        <DataArray type="Float32" Name="p (Pa)" NumberOfComponents="1" format="ascii">
          24388.1 23576.8 22257 21059.6 20661.6 20940.5 21293.8 24373.6 23509.1 22074.3 20736.9 20337.2
          20723.8 21158 24516.4 23636.1 22156.7 20741.6 20317.9 20782 21274 24958.3 24176.5 22901.7
          21738.1 21356.5 21662.1 22046.1 25623.9 24990.8 23998.4 23149.5 22868.2 23047.9 23298.7 26304.5
          25813.7 25068.9 24455.7 24243.8 24348.1 24507.4 26732.3 26324.6 25715.9 25220.8 25040.3 25108.7
          25224.5 22756.6 21626.2 19713.9 17933.7 17597.3 18301.4 18968 22663.6 21403.2 19170 16913.5
          16630.7 17701.3 18596.9 22747.9 21416.6 18982.2 16319.6 15892.2 17356.9 18480.6 23240.6 22074.7
          20074.8 18155.3 17763.2 18587.5 19421 24038.7 23106 21608.6 20373.9 20170.6 20643 21148
          24903.4 24211.7 23161 22356.4 22215.2 22497.9 22801.1 25458.7 24908.2 24095.7 23484.8 23356.1
          23550 23763 19484.1 17566.8 14040.9 10411.4 10510.3 12569.8 14107 19184.5 16878 12171
          6064.63 6910.68 10690.2 13051.1 19100.6 16515.7 10842.3 1806.18 1604.05 8570.64 12114.1 19688.2
          17471.6 13236.8 8491.54 8229.15 10935.6 13411 20760.6 18969.9 15871.5 13426.4 13778 15182.5
          16486.3 22077.9 20843.9 18920.7 17606 17799.1 18604.9 19308.5 22950 22039.4 20698.3 19808.7
          19874.7 20411.4 20875 14434.2 10965 3665.79 -5853.34 -3215.04 2677.34 6202.02 13700.3 9079.9
          -3017.4 -31512.5 -17930.3 -2973.31 3506.1 13234.2 7635.98 -9436.49 -69430.1 -66757.7 -13387 -47.3396
          13920.3 9211.15 -1598 -18441 -16948.9 -7967.31 1478.57 15363.9 11237 2465.56 -4217.35 371.191
          4483.88 8236.87 17635.1 15105.1 10792.2 8198.46 9913.78 12068.7 13744.4 19166.3 17499.5 14970.4
          13513.1 14220.4 15543.4 16537.1 7598.12 1531.04 -13711 -44849.6 -28049.3 -12497.1 -5152.63 6111.87
          -3052.2 -39310.6 -316596 -94056.7 -27740.6 -11037.7 4994.05 -7207.11 -73714 -1.06745e+06 -993490 -83133
          -22100.2 5635.17 -4691.66 -36195.1 -127067 -101187 -83817 -24235.1 7245.87 -4202.13 -46697.3 -78783.2
          -29748.4 -18159.3 -5535.14 11522.6 5931.86 -5978.04 -12557.7 -3390.01 2067.98 6022.78 14318.4 11217
          6097.82 3485.63 6132.54 9063.03 11040.1 -783.386 -10086.2 -36040 -110735 -62565.5 -32887.6 -20020.9
          -3207.39 -18339.5 -94636.8 -1.0059e+06 -184848 -59104 -29523.6 -4616.19 -23463.8 -120581 -1.1014e+06 -1.07925e+06
          -163180 -52213 -4444.23 -25523.4 -121507 -1.0163e+06 -277136 -1.0318e+06 -95314.7 -3596.71 -43486.8 -530724
          -1.01997e+06 -107450 -80484.5 -26219.9 4634.39 -7338.46 -48603.9 -73760.5 -23703.2 -11301.5 -2620.98 9384.74
          4165.36 -5847.21 -10722.9 -3297.37 2165.43 5525.19 -10806.2 -23588 -54271.4 -133774 -123660 -65583.2
          -40495.6 -14648.3 -36425.3 -117035 -898357 -799370 -113509 -51476.3 -14514.3 -39033.6 -147975 -1.09935e+06
          -1.09378e+06 -208244 -76295.9 -12691.7 -41640.6 -176943 -1.0962e+06 -1.06014e+06 -1.04378e+06 -119170 -10818 -72600.9
          -1.04701e+06 -1.02697e+06 -159988 -96500 -35316.6 516.24 -15127.9 -78167 -97444.1 -35119.4 -17550 -7311.31
          6482.98 186.845 -12681.9 -18335 -8758.36 -1790.15 2191.88 -23744.9 -45642.7 -78412.2 -115399 -143005
          -157720 -76467.1 -33599.7 -96462.7 -179419 -259892 -287201 -131286 -75883.8 -24854.7 -60935.5 -208679
          -1.09036e+06 -1.10423e+06 -189554 -90027.5 -15519.2 -41370.8 -153880 -1.09634e+06 -285185 -149145 -68119.2 -7534.03
          -29665.6 -130420 -988677 -114010 -48256.8 -27401.1 1842.66 -7635.2 -32010.3 -77889.9 -28834.9 -13179.9
          -6396.98 6925.53 2015.42 -7114.98 -14408 -7321.35 -1305.21 1969.41 -37128.2 -94537.2 -148713 -150791
          -298308 -1.05778e+06 -174632 -76790.2 -759242 -1.06681e+06 -328840 -1.08077e+06 -247734 -126539 -34878 -121354
          -1.05047e+06 -1.10009e+06 -1.10496e+06 -203643 -167385 -14696.7 -38535.9 -143452 -1.02895e+06 -186684 -84762.9 -66212.4
          -2954.84 -14182.8 -44511.4 -123536 -54372.4 -30942.6 -22864.3 5153.14 -364.576 -11494.5 -24677.5 -14925
          -7498.13 -3875.61 9246.62 5925.56 257.758 -4238.24 -1905.11 1497.65 3557.11 -26791.5 -50006.7 -87567.7
          -181596 -1.06817e+06 -1.07834e+06 -231212 -36416.8 -102191 -189848 -301168 -1.08456e+06 -333567 -227490 -25153.6
          -64612.2 -217637 -1.0751e+06 -1.09976e+06 -276077 -1.03645e+06 -9620.21 -25355.5 -69051.6 -169660 -139487 -84652
          -112752 1488.06 -5546.91 -20513.8 -40241.8 -34119.5 -24724.7 -23201.2 8521.24 4952.5 -1436.48 -7483.09
          -6283.06 -3219.92 -1565 11922.2 9625.97 5876.42 2825.06 2992.57 4530.51 5641.08 -16256.6 -30008.9
          -59657.2 -115951 -285513 -333053 -171421 -19877.5 -45640.1 -128413 -248249 -1.09451e+06 -399663 -242437
          -18406.8 -77841.9 -974640 -1.06636e+06 -1.10816e+06 -1.09047e+06 -1.01325e+06 -5060.43 -20799.9 -82957.2 -125486 -129778
          -112152 -106191 5028.09 -692.465 -13020.7 -24414.8 -26001.7 -21679.2 -19420.6 11253.1 8521.5 3745.92
          -545.413 -1367.49 -11.2023 1057.53 14206.1 12439 9569.07 7089.58 6455.57 7095.69 7744.34 -9058.26
          -19362 -43776.6 -95779.9 -248486 -1.04863e+06 -181614 -10343.1 -25075.3 -67902.7 -204761 -1.08627e+06 -1.08924e+06
          -192466 -8536.28 -29271.3 -130236 -1.10079e+06 -1.10681e+06 -233677 -151143 -40.701 -9918.44 -37097.2 -101770
          -115464 -61504.9 -46974.5 7917.06 3424.92 -5711.68 -17205.1 -20447.3 -14184.5 -10725 13270.4 10968.7
          6941.08 2952.81 1665.7 2896.83 4007.01 15882.3 14360.2 11860.3 9561.5 8702.29 9105.79 9642.99
          -4976.15 -14446.2 -38722.9 -92824.9 -202284 -182766 -90423.5 -5433.57 -17615.7 -56241.1 -198846 -1.07357e+06
          -233256 -93396.7 -3172.74 -15504.2 -53867 -186969 -1.10536e+06 -148064 -67920.6 3049.02 -4691.97 -23777.8
          -60325.9 -104977 -45443.2 -28393.7 9676.88 5583.33 -2751.1 -13520.8 -17651.5 -9884.55 -5494.76 14491.5
          12284.8 8347.27 4299.95 3137.95 4770.09 6148.68 16914.6 15445.7 12994.9 10692.6 9894.45 10411.6
          11028.2 -3079.4 -13026.3 -42309.8 -133403 -172742 -91736.7 -58148.1 -3576.28 -17675.1 -91855.1 -1.06704e+06
          -1.0859e+06 -150794 -63146.8 -1407.47 -14068.5 -59222.3 -258121 -1.11188e+06 -131075 -49976.4 3950.53 -4928.4
          -31691.9 -114074 -110921 -40903.6 -21786.3 10241.5 5560.17 -5196.51 -22377.6 -19534.1 -8459.45 -3033.5
          14977.4 12552.6 7964.59 2918.49 2966.37 5526.62 7304.95 17384.5 15830.9 13174 10661.3 10173.7
          11023.8 11814 -2182.59 -11445.7 -35069.5 -79857.1 -97477.8 -65048.4 -45706.7 -2746.55 -15299.5 -57399.8
          -196632 -225327 -89343.4 -49582.1 -1397.01 -17301.5 -102933 -1.11705e+06 -1.10409e+06 -123158 -43929.6 3524.43
          -9258.3 -79968.5 -1.09985e+06 -141304 -41194 -19665.5 10074.8 4165.31 -13250.1 -67436.4 -26038.7 -8756.06
          -2234.96 14998 12224.6 6459.47 -1282.92 1720.16 5535.11 7699.25 17477 15802.2 12845.7 9958.82
          9929.99 11144.5 12094
        </DataArray>
        <DataArray type="Float32" Name="saturation" NumberOfComponents="1" format="ascii">
          0.289928 0.289267 0.288217 0.287287 0.286984 0.287196 0.287467 0.289916 0.289213 0.288073 0.287041 0.286738
          0.287031 0.287363 0.290033 0.289315 0.288138 0.287045 0.286723 0.287075 0.287452 0.290399 0.289754 0.288726
          0.287811 0.287516 0.287752 0.288051 0.290956 0.290426 0.289609 0.288924 0.2887 0.288843 0.289044 0.291533
          0.291116 0.290491 0.289983 0.289809 0.289895 0.290026 0.291901 0.291551 0.291033 0.290617 0.290467 0.290524
          0.29062 0.288611 0.287724 0.28627 0.284964 0.284723 0.28523 0.285717 0.288537 0.287552 0.285866 0.284236
          0.284037 0.284797 0.285445 0.288604 0.287562 0.285728 0.283819 0.283522 0.284551 0.285361 0.288997 0.288074
          0.28654 0.285124 0.284842 0.285439 0.286052 0.289642 0.288889 0.287711 0.286765 0.286612 0.28697 0.287355
          0.290353 0.289783 0.288933 0.288295 0.288184 0.288406 0.288646 0.290817 0.290357 0.289688 0.289193 0.28909
          0.289246 0.289418 0.286099 0.284701 0.282261 0.279911 0.279973 0.28129 0.282305 0.285877 0.284211 0.281031
          0.277288 0.277783 0.280086 0.281605 0.285815 0.283956 0.280182 0.274899 0.27479 0.278776 0.280994 0.286251
          0.284633 0.281727 0.278728 0.278569 0.280241 0.281842 0.287059 0.285719 0.283508 0.281852 0.282086 0.283033
          0.283936 0.288076 0.287122 0.285682 0.284729 0.284868 0.285451 0.285968 0.288765 0.288046 0.287012 0.286341
          0.28639 0.286794 0.287146 0.282525 0.280259 0.275922 0.270994 0.272287 0.275374 0.277368 0.282034 0.279086
          0.272386 0.260641 0.265673 0.272408 0.275833 0.281725 0.278213 0.269318 0.250136 0.250749 0.267568 0.27391
          0.28218 0.279166 0.273105 0.265467 0.266073 0.269994 0.274722 0.283158 0.280432 0.275258 0.271789 0.274131
          0.276381 0.278574 0.28475 0.282981 0.28015 0.278551 0.2796 0.280965 0.282063 0.285863 0.284653 0.282889
          0.281909 0.282381 0.283281 0.283971 0.278191 0.274751 0.267429 0.256447 0.261843 0.267954 0.271332 0.277315
          0.272368 0.258111 0.223414 0.245129 0.261952 0.268597 0.276671 0.27035 0.249184 0.206184 0.206991 0.247217
          0.264033 0.277039 0.271557 0.259094 0.239819 0.243865 0.24708 0.263228 0.277981 0.271797 0.255914 0.248105
          0.261247 0.265581 0.271147 0.280614 0.277211 0.270934 0.267927 0.272199 0.275041 0.277263 0.282447 0.280419
          0.277307 0.275821 0.277327 0.279076 0.280307 0.273526 0.269023 0.259144 0.24228 0.251744 0.260178 0.26484
          0.27229 0.265508 0.245023 0.20685 0.232984 0.252597 0.261325 0.271593 0.263516 0.240761 0.205841 0.206063
          0.235264 0.254386 0.271678 0.262753 0.240624 0.206733 0.225712 0.206563 0.244901 0.272096 0.256847 0.215183
          0.206692 0.242812 0.247753 0.262499 0.276467 0.270288 0.255376 0.249174 0.263427 0.26848 0.272585 0.279273
          0.276202 0.270997 0.268737 0.272245 0.275094 0.276976 0.2687 0.26347 0.253838 0.238888 0.240308 0.251024
          0.257746 0.26703 0.25902 0.241295 0.208166 0.209596 0.24184 0.254585 0.267087 0.258197 0.237052 0.205861
          0.205917 0.230813 0.248628 0.267869 0.257398 0.233783 0.205893 0.20626 0.206433 0.240972 0.268695 0.249427
          0.206399 0.206615 0.235626 0.244687 0.259378 0.274208 0.266828 0.248233 0.244519 0.259442 0.265827 0.270301
          0.277532 0.274034 0.267873 0.26551 0.269628 0.273007 0.275109 0.263411 0.256217 0.248182 0.241546 0.237675
          0.235887 0.248592 0.259941 0.244694 0.233528 0.226841 0.22509 0.239228 0.248716 0.262998 0.252142 0.230776
          0.205951 0.205813 0.232525 0.245877 0.266664 0.25748 0.236338 0.205891 0.225213 0.236909 0.250435 0.270196
          0.261276 0.239348 0.207046 0.241762 0.255473 0.262074 0.274919 0.270149 0.260472 0.248291 0.261566 0.267658
          0.270734 0.277792 0.275013 0.270393 0.267132 0.270296 0.273256 0.274988 0.258796 0.245041 0.236961 0.236708
          0.224434 0.206285 0.234023 0.248523 0.21025 0.206191 0.22277 0.206048 0.227691 0.239894 0.25952 0.240646
          0.206362 0.205854 0.205806 0.231219 0.234799 0.26701 0.258352 0.237618 0.206594 0.232803 0.246893 0.250876
          0.272417 0.267228 0.256546 0.240326 0.253812 0.260835 0.263743 0.276762 0.273744 0.268394 0.263064 0.266913
          0.270213 0.271958 0.279188 0.277207 0.274071 0.271779 0.272948 0.274733 0.275861 0.262292 0.254987 0.246346
          0.233308 0.206177 0.206072 0.228925 0.259023 0.243692 0.232496 0.224269 0.206009 0.222529 0.229216 0.262888
          0.251253 0.230015 0.206106 0.205857 0.225779 0.206512 0.269234 0.262814 0.250222 0.234552 0.238129 0.246915
          0.241959 0.274727 0.271141 0.264647 0.257824 0.259769 0.263047 0.263615 0.278746 0.276648 0.273188 0.27022
          0.270788 0.272284 0.273122 0.28087 0.279422 0.277179 0.275455 0.275548 0.276408 0.277042 0.266358 0.261156
          0.252459 0.241461 0.225193 0.222555 0.234363 0.264896 0.256218 0.239628 0.227654 0.205909 0.219553 0.228076
          0.265481 0.248301 0.207211 0.206196 0.205774 0.20595 0.206767 0.271377 0.264535 0.247252 0.240044 0.239437
          0.242054 0.243019 0.276691 0.273573 0.267727 0.263161 0.262578 0.264195 0.265077 0.280442 0.278746 0.275966
          0.27365 0.273224 0.273929 0.274496 0.282372 0.281205 0.279387 0.277889 0.277516 0.277892 0.278278 0.26949
          0.2651 0.256761 0.244817 0.227637 0.206382 0.233306 0.268907 0.262917 0.250485 0.23112 0.205992 0.205962
          0.232247 0.26973 0.261413 0.239373 0.205847 0.205788 0.228735 0.236666 0.273914 0.269099 0.258806 0.243764
          0.241536 0.252002 0.255835 0.278381 0.275787 0.271062 0.265968 0.264673 0.267227 0.268736 0.281749 0.280262
          0.277801 0.275526 0.274823 0.275495 0.276113 0.283515 0.282475 0.28083 0.279382 0.278856 0.279102 0.279432
          0.271418 0.267116 0.258294 0.245355 0.231341 0.233191 0.245802 0.271196 0.265801 0.253325 0.231652 0.206121
          0.228767 0.24525 0.272308 0.26667 0.253945 0.232775 0.205802 0.237041 0.25048 0.275579 0.271556 0.263399
          0.252293 0.243221 0.256275 0.261721 0.279453 0.277009 0.272519 0.267511 0.265786 0.269114 0.271166 0.282564
          0.281104 0.27864 0.276277 0.275628 0.276544 0.277337 0.284237 0.283214 0.281568 0.280087 0.279588 0.279911
          0.280299 0.272355 0.267724 0.257197 0.238939 0.234222 0.245556 0.252838 0.272106 0.265777 0.245534 0.206189
          0.205996 0.236708 0.251604 0.273203 0.267276 0.252567 0.226962 0.205738 0.239257 0.254995 0.276081 0.271441
          0.26058 0.241752 0.24225 0.257622 0.264154 0.279804 0.276996 0.271311 0.263928 0.265032 0.269766 0.272378
          0.282893 0.281278 0.27841 0.275507 0.275533 0.276976 0.278016 0.284571 0.283479 0.281686 0.280068 0.279762
          0.280296 0.280801 0.272807 0.268416 0.259458 0.247882 0.244513 0.25115 0.256199 0.272522 0.266756 0.253028
          0.231856 0.229388 0.246006 0.255104 0.273209 0.265928 0.243566 0.205688 0.205814 0.240381 0.256716 0.275843
          0.269399 0.247859 0.205856 0.237893 0.257533 0.26498 0.2797 0.276202 0.267627 0.250592 0.262565 0.269629
          0.27278 0.282907 0.281065 0.277518 0.273267 0.274853 0.276981 0.278251 0.284637 0.28346 0.28147 0.279628
          0.27961 0.280373 0.280981
        </DataArray>
        <DataArray type="Float32" Name="process rank" NumberOfComponents="1" format="ascii">
          0 0 0 0 0 0 0 0 0 0 0 0
          0 0 0 0 0 0 0 0 0 0 0 0
          0 0 0 0 0 0 0 0 0 0 0 0
          0 0 0 0 0 0 0 0 0 0 0 0
          0 0 0 0 0 0 0 0 0 0 0 0
          0 0 0 0 0 0 0 0 0 0 0 0
          0 0 0 0 0 0 0 0 0 0 0 0
          0 0 0 0 0 0 0 0 0 0 0 0
          0 0 0 0 0 0 0 0 0 0 0 0
          0 0 0 0 0 0 0 0 0 0 0 0
          0 0 0 0 0 0 0 0 0 0 0 0
          0 0 0 0 0 0 0 0 0 0 0 0
          0 0 0 0 0 0 0 0 0 0 0 0
          0 0 0 0 0 0 0 0 0 0 0 0
          0 0 0 0 0 0 0 0 0 0 0 0
          0 0 0 0 0 0 0 0 0 0 0 0
          0 0 0 0 0 0 0 0 0 0 0 0
          0 0 0 0 0 0 0 0 0 0 0 0
          0 0 0 0 0 0 0 0 0 0 0 0
          0 0 0 0 0 0 0 0 0 0 0 0
          0 0 0 0 0 0 0 0 0 0 0 0
          0 0 0 0 0 0 0 0 0 0 0 0
          0 0 0 0 0 0 0 0 0 0 0 0
          0 0 0 0 0 0 0 0 0 0 0 0
          0 0 0 0 0 0 0 0 0 0 0 0
          0 0 0 0 0 0 0 0 0 0 0 0
          0 0 0 0 0 0 0 0 0 0 0 0
          0 0 0 0 0 0 0 0 0 0 0 0
          0 0 0 0 0 0 0 0 0 0 0 0
          0 0 0 0 0 0 0 0 0 0 0 0
          0 0 0 0 0 0 0 0 0 0 0 0
          0 0 0 0 0 0 0 0 0 0 0 0
          0 0 0 0 0 0 0 0 0 0 0 0
          0 0 0 0 0 0 0 0 0 0 0 0
          0 0 0 0 0 0 0 0 0 0 0 0
          0 0 0 0 0 0 0 0 0 0 0 0
          0 0 0 0 0 0 0 0 0 0 0 0
          0 0 0 0 0 0 0 0 0 0 0 0
          0 0 0 0 0 0 0 0 0 0 0 0
          0 0 0 0 0 0 0 0 0 0 0 0
          0 0 0 0 0 0 0 0 0 0 0 0
          0 0 0 0 0 0 0 0 0 0 0 0
          0 0 0 0 0 0 0 0 0 0 0 0
          0 0 0 0 0 0 0 0 0 0 0 0
          0 0 0 0 0 0 0 0 0 0 0 0
          0 0 0 0 0 0 0 0 0 0 0 0
          0 0 0 0 0 0 0 0 0 0 0 0
          0 0 0 0 0 0 0 0 0 0 0 0
          0 0 0 0 0 0 0 0 0 0 0 0
          0 0 0 0 0 0 0 0 0 0 0 0
          0 0 0 0 0 0 0 0 0 0 0 0
          0 0 0 0 0 0 0 0 0 0 0 0
          0 0 0 0 0 0 0 0 0 0 0 0
          0 0 0 0 0 0 0 0 0 0 0 0
          0 0 0 0 0 0 0 0 0 0 0 0
          0 0 0 0 0 0 0 0 0 0 0 0
          0 0 0 0 0 0 0 0 0 0 0 0
          0 0 0 0 0 0 0 0 0 0 0 0
          0 0 0 0 0 0 0 0 0 0 0 0
          0 0 0 0 0 0 0 0 0 0 0 0
          0 0 0 0 0 0 0 0 0 0 0 0
          0 0 0
        </DataArray>
      </CellData>
      <Points>
        <DataArray type="Float32" Name="Coordinates" NumberOfComponents="3" format="ascii">
          -0.04 -0.04 -0.15 -0.0285714 -0.04 -0.15 -0.04 -0.0285714 -0.15 -0.0285714 -0.0285714 -0.15
          -0.04 -0.04 -0.14 -0.0285714 -0.04 -0.14 -0.04 -0.0285714 -0.14 -0.0285714 -0.0285714 -0.14
          -0.0171429 -0.04 -0.15 -0.0171429 -0.0285714 -0.15 -0.0171429 -0.04 -0.14 -0.0171429 -0.0285714 -0.14
          -0.00571429 -0.04 -0.15 -0.00571429 -0.0285714 -0.15 -0.00571429 -0.04 -0.14 -0.00571429 -0.0285714 -0.14
          0.00571429 -0.04 -0.15 0.00571429 -0.0285714 -0.15 0.00571429 -0.04 -0.14 0.00571429 -0.0285714 -0.14
          0.0171429 -0.04 -0.15 0.0171429 -0.0285714 -0.15 0.0171429 -0.04 -0.14 0.0171429 -0.0285714 -0.14
          0.0285714 -0.04 -0.15 0.0285714 -0.0285714 -0.15 0.0285714 -0.04 -0.14 0.0285714 -0.0285714 -0.14
          0.04 -0.04 -0.15 0.04 -0.0285714 -0.15 0.04 -0.04 -0.14 0.04 -0.0285714 -0.14
          -0.04 -0.0171429 -0.15 -0.0285714 -0.0171429 -0.15 -0.04 -0.0171429 -0.14 -0.0285714 -0.0171429 -0.14
          -0.0171429 -0.0171429 -0.15 -0.0171429 -0.0171429 -0.14 -0.00571429 -0.0171429 -0.15 -0.00571429 -0.0171429 -0.14
          0.00571429 -0.0171429 -0.15 0.00571429 -0.0171429 -0.14 0.0171429 -0.0171429 -0.15 0.0171429 -0.0171429 -0.14
          0.0285714 -0.0171429 -0.15 0.0285714 -0.0171429 -0.14 0.04 -0.0171429 -0.15 0.04 -0.0171429 -0.14
          -0.04 -0.00571429 -0.15 -0.0285714 -0.00571429 -0.15 -0.04 -0.00571429 -0.14 -0.0285714 -0.00571429 -0.14
          -0.0171429 -0.00571429 -0.15 -0.0171429 -0.00571429 -0.14 -0.00571429 -0.00571429 -0.15 -0.00571429 -0.00571429 -0.14
          0.00571429 -0.00571429 -0.15 0.00571429 -0.00571429 -0.14 0.0171429 -0.00571429 -0.15 0.0171429 -0.00571429 -0.14
          0.0285714 -0.00571429 -0.15 0.0285714 -0.00571429 -0.14 0.04 -0.00571429 -0.15 0.04 -0.00571429 -0.14
          -0.04 0.00571429 -0.15 -0.0285714 0.00571429 -0.15 -0.04 0.00571429 -0.14 -0.0285714 0.00571429 -0.14
          -0.0171429 0.00571429 -0.15 -0.0171429 0.00571429 -0.14 -0.00571429 0.00571429 -0.15 -0.00571429 0.00571429 -0.14
          0.00571429 0.00571429 -0.15 0.00571429 0.00571429 -0.14 0.0171429 0.00571429 -0.15 0.0171429 0.00571429 -0.14
          0.0285714 0.00571429 -0.15 0.0285714 0.00571429 -0.14 0.04 0.00571429 -0.15 0.04 0.00571429 -0.14
          -0.04 0.0171429 -0.15 -0.0285714 0.0171429 -0.15 -0.04 0.0171429 -0.14 -0.0285714 0.0171429 -0.14
          -0.0171429 0.0171429 -0.15 -0.0171429 0.0171429 -0.14 -0.00571429 0.0171429 -0.15 -0.00571429 0.0171429 -0.14
          0.00571429 0.0171429 -0.15 0.00571429 0.0171429 -0.14 0.0171429 0.0171429 -0.15 0.0171429 0.0171429 -0.14
          0.0285714 0.0171429 -0.15 0.0285714 0.0171429 -0.14 0.04 0.0171429 -0.15 0.04 0.0171429 -0.14
          -0.04 0.0285714 -0.15 -0.0285714 0.0285714 -0.15 -0.04 0.0285714 -0.14 -0.0285714 0.0285714 -0.14
          -0.0171429 0.0285714 -0.15 -0.0171429 0.0285714 -0.14 -0.00571429 0.0285714 -0.15 -0.00571429 0.0285714 -0.14
          0.00571429 0.0285714 -0.15 0.00571429 0.0285714 -0.14 0.0171429 0.0285714 -0.15 0.0171429 0.0285714 -0.14
          0.0285714 0.0285714 -0.15 0.0285714 0.0285714 -0.14 0.04 0.0285714 -0.15 0.04 0.0285714 -0.14
          -0.04 0.04 -0.15 -0.0285714 0.04 -0.15 -0.04 0.04 -0.14 -0.0285714 0.04 -0.14
          -0.0171429 0.04 -0.15 -0.0171429 0.04 -0.14 -0.00571429 0.04 -0.15 -0.00571429 0.04 -0.14
          0.00571429 0.04 -0.15 0.00571429 0.04 -0.14 0.0171429 0.04 -0.15 0.0171429 0.04 -0.14
          0.0285714 0.04 -0.15 0.0285714 0.04 -0.14 0.04 0.04 -0.15 0.04 0.04 -0.14
          -0.04 -0.04 -0.13 -0.0285714 -0.04 -0.13 -0.04 -0.0285714 -0.13 -0.0285714 -0.0285714 -0.13
          -0.0171429 -0.04 -0.13 -0.0171429 -0.0285714 -0.13 -0.00571429 -0.04 -0.13 -0.00571429 -0.0285714 -0.13
          0.00571429 -0.04 -0.13 0.00571429 -0.0285714 -0.13 0.0171429 -0.04 -0.13 0.0171429 -0.0285714 -0.13
          0.0285714 -0.04 -0.13 0.0285714 -0.0285714 -0.13 0.04 -0.04 -0.13 0.04 -0.0285714 -0.13
          -0.04 -0.0171429 -0.13 -0.0285714 -0.0171429 -0.13 -0.0171429 -0.0171429 -0.13 -0.00571429 -0.0171429 -0.13
          0.00571429 -0.0171429 -0.13 0.0171429 -0.0171429 -0.13 0.0285714 -0.0171429 -0.13 0.04 -0.0171429 -0.13
          -0.04 -0.00571429 -0.13 -0.0285714 -0.00571429 -0.13 -0.0171429 -0.00571429 -0.13 -0.00571429 -0.00571429 -0.13
          0.00571429 -0.00571429 -0.13 0.0171429 -0.00571429 -0.13 0.0285714 -0.00571429 -0.13 0.04 -0.00571429 -0.13
          -0.04 0.00571429 -0.13 -0.0285714 0.00571429 -0.13 -0.0171429 0.00571429 -0.13 -0.00571429 0.00571429 -0.13
          0.00571429 0.00571429 -0.13 0.0171429 0.00571429 -0.13 0.0285714 0.00571429 -0.13 0.04 0.00571429 -0.13
          -0.04 0.0171429 -0.13 -0.0285714 0.0171429 -0.13 -0.0171429 0.0171429 -0.13 -0.00571429 0.0171429 -0.13
          0.00571429 0.0171429 -0.13 0.0171429 0.0171429 -0.13 0.0285714 0.0171429 -0.13 0.04 0.0171429 -0.13
          -0.04 0.0285714 -0.13 -0.0285714 0.0285714 -0.13 -0.0171429 0.0285714 -0.13 -0.00571429 0.0285714 -0.13
          0.00571429 0.0285714 -0.13 0.0171429 0.0285714 -0.13 0.0285714 0.0285714 -0.13 0.04 0.0285714 -0.13
          -0.04 0.04 -0.13 -0.0285714 0.04 -0.13 -0.0171429 0.04 -0.13 -0.00571429 0.04 -0.13
          0.00571429 0.04 -0.13 0.0171429 0.04 -0.13 0.0285714 0.04 -0.13 0.04 0.04 -0.13
          -0.04 -0.04 -0.12 -0.0285714 -0.04 -0.12 -0.04 -0.0285714 -0.12 -0.0285714 -0.0285714 -0.12
          -0.0171429 -0.04 -0.12 -0.0171429 -0.0285714 -0.12 -0.00571429 -0.04 -0.12 -0.00571429 -0.0285714 -0.12
          0.00571429 -0.04 -0.12 0.00571429 -0.0285714 -0.12 0.0171429 -0.04 -0.12 0.0171429 -0.0285714 -0.12
          0.0285714 -0.04 -0.12 0.0285714 -0.0285714 -0.12 0.04 -0.04 -0.12 0.04 -0.0285714 -0.12
          -0.04 -0.0171429 -0.12 -0.0285714 -0.0171429 -0.12 -0.0171429 -0.0171429 -0.12 -0.00571429 -0.0171429 -0.12
          0.00571429 -0.0171429 -0.12 0.0171429 -0.0171429 -0.12 0.0285714 -0.0171429 -0.12 0.04 -0.0171429 -0.12
          -0.04 -0.00571429 -0.12 -0.0285714 -0.00571429 -0.12 -0.0171429 -0.00571429 -0.12 -0.00571429 -0.00571429 -0.12
          0.00571429 -0.00571429 -0.12 0.0171429 -0.00571429 -0.12 0.0285714 -0.00571429 -0.12 0.04 -0.00571429 -0.12
          -0.04 0.00571429 -0.12 -0.0285714 0.00571429 -0.12 -0.0171429 0.00571429 -0.12 -0.00571429 0.00571429 -0.12
          0.00571429 0.00571429 -0.12 0.0171429 0.00571429 -0.12 0.0285714 0.00571429 -0.12 0.04 0.00571429 -0.12
          -0.04 0.0171429 -0.12 -0.0285714 0.0171429 -0.12 -0.0171429 0.0171429 -0.12 -0.00571429 0.0171429 -0.12
          0.00571429 0.0171429 -0.12 0.0171429 0.0171429 -0.12 0.0285714 0.0171429 -0.12 0.04 0.0171429 -0.12
          -0.04 0.0285714 -0.12 -0.0285714 0.0285714 -0.12 -0.0171429 0.0285714 -0.12 -0.00571429 0.0285714 -0.12
          0.00571429 0.0285714 -0.12 0.0171429 0.0285714 -0.12 0.0285714 0.0285714 -0.12 0.04 0.0285714 -0.12
          -0.04 0.04 -0.12 -0.0285714 0.04 -0.12 -0.0171429 0.04 -0.12 -0.00571429 0.04 -0.12
          0.00571429 0.04 -0.12 0.0171429 0.04 -0.12 0.0285714 0.04 -0.12 0.04 0.04 -0.12
          -0.04 -0.04 -0.11 -0.0285714 -0.04 -0.11 -0.04 -0.0285714 -0.11 -0.0285714 -0.0285714 -0.11
          -0.0171429 -0.04 -0.11 -0.0171429 -0.0285714 -0.11 -0.00571429 -0.04 -0.11 -0.00571429 -0.0285714 -0.11
          0.00571429 -0.04 -0.11 0.00571429 -0.0285714 -0.11 0.0171429 -0.04 -0.11 0.0171429 -0.0285714 -0.11
          0.0285714 -0.04 -0.11 0.0285714 -0.0285714 -0.11 0.04 -0.04 -0.11 0.04 -0.0285714 -0.11
          -0.04 -0.0171429 -0.11 -0.0285714 -0.0171429 -0.11 -0.0171429 -0.0171429 -0.11 -0.00571429 -0.0171429 -0.11
          0.00571429 -0.0171429 -0.11 0.0171429 -0.0171429 -0.11 0.0285714 -0.0171429 -0.11 0.04 -0.0171429 -0.11
          -0.04 -0.00571429 -0.11 -0.0285714 -0.00571429 -0.11 -0.0171429 -0.00571429 -0.11 -0.00571429 -0.00571429 -0.11
          0.00571429 -0.00571429 -0.11 0.0171429 -0.00571429 -0.11 0.0285714 -0.00571429 -0.11 0.04 -0.00571429 -0.11
          -0.04 0.00571429 -0.11 -0.0285714 0.00571429 -0.11 -0.0171429 0.00571429 -0.11 -0.00571429 0.00571429 -0.11
          0.00571429 0.00571429 -0.11 0.0171429 0.00571429 -0.11 0.0285714 0.00571429 -0.11 0.04 0.00571429 -0.11
          -0.04 0.0171429 -0.11 -0.0285714 0.0171429 -0.11 -0.0171429 0.0171429 -0.11 -0.00571429 0.0171429 -0.11
          0.00571429 0.0171429 -0.11 0.0171429 0.0171429 -0.11 0.0285714 0.0171429 -0.11 0.04 0.0171429 -0.11
          -0.04 0.0285714 -0.11 -0.0285714 0.0285714 -0.11 -0.0171429 0.0285714 -0.11 -0.00571429 0.0285714 -0.11
          0.00571429 0.0285714 -0.11 0.0171429 0.0285714 -0.11 0.0285714 0.0285714 -0.11 0.04 0.0285714 -0.11
          -0.04 0.04 -0.11 -0.0285714 0.04 -0.11 -0.0171429 0.04 -0.11 -0.00571429 0.04 -0.11
          0.00571429 0.04 -0.11 0.0171429 0.04 -0.11 0.0285714 0.04 -0.11 0.04 0.04 -0.11
          -0.04 -0.04 -0.1 -0.0285714 -0.04 -0.1 -0.04 -0.0285714 -0.1 -0.0285714 -0.0285714 -0.1
          -0.0171429 -0.04 -0.1 -0.0171429 -0.0285714 -0.1 -0.00571429 -0.04 -0.1 -0.00571429 -0.0285714 -0.1
          0.00571429 -0.04 -0.1 0.00571429 -0.0285714 -0.1 0.0171429 -0.04 -0.1 0.0171429 -0.0285714 -0.1
          0.0285714 -0.04 -0.1 0.0285714 -0.0285714 -0.1 0.04 -0.04 -0.1 0.04 -0.0285714 -0.1
          -0.04 -0.0171429 -0.1 -0.0285714 -0.0171429 -0.1 -0.0171429 -0.0171429 -0.1 -0.00571429 -0.0171429 -0.1
          0.00571429 -0.0171429 -0.1 0.0171429 -0.0171429 -0.1 0.0285714 -0.0171429 -0.1 0.04 -0.0171429 -0.1
          -0.04 -0.00571429 -0.1 -0.0285714 -0.00571429 -0.1 -0.0171429 -0.00571429 -0.1 -0.00571429 -0.00571429 -0.1
          0.00571429 -0.00571429 -0.1 0.0171429 -0.00571429 -0.1 0.0285714 -0.00571429 -0.1 0.04 -0.00571429 -0.1
          -0.04 0.00571429 -0.1 -0.0285714 0.00571429 -0.1 -0.0171429 0.00571429 -0.1 -0.00571429 0.00571429 -0.1
          0.00571429 0.00571429 -0.1 0.0171429 0.00571429 -0.1 0.0285714 0.00571429 -0.1 0.04 0.00571429 -0.1
          -0.04 0.0171429 -0.1 -0.0285714 0.0171429 -0.1 -0.0171429 0.0171429 -0.1 -0.00571429 0.0171429 -0.1
          0.00571429 0.0171429 -0.1 0.0171429 0.0171429 -0.1 0.0285714 0.0171429 -0.1 0.04 0.0171429 -0.1
          -0.04 0.0285714 -0.1 -0.0285714 0.0285714 -0.1 -0.0171429 0.0285714 -0.1 -0.00571429 0.0285714 -0.1
          0.00571429 0.0285714 -0.1 0.0171429 0.0285714 -0.1 0.0285714 0.0285714 -0.1 0.04 0.0285714 -0.1
          -0.04 0.04 -0.1 -0.0285714 0.04 -0.1 -0.0171429 0.04 -0.1 -0.00571429 0.04 -0.1
          0.00571429 0.04 -0.1 0.0171429 0.04 -0.1 0.0285714 0.04 -0.1 0.04 0.04 -0.1
          -0.04 -0.04 -0.09 -0.0285714 -0.04 -0.09 -0.04 -0.0285714 -0.09 -0.0285714 -0.0285714 -0.09
          -0.0171429 -0.04 -0.09 -0.0171429 -0.0285714 -0.09 -0.00571429 -0.04 -0.09 -0.00571429 -0.0285714 -0.09
          0.00571429 -0.04 -0.09 0.00571429 -0.0285714 -0.09 0.0171429 -0.04 -0.09 0.0171429 -0.0285714 -0.09
          0.0285714 -0.04 -0.09 0.0285714 -0.0285714 -0.09 0.04 -0.04 -0.09 0.04 -0.0285714 -0.09
          -0.04 -0.0171429 -0.09 -0.0285714 -0.0171429 -0.09 -0.0171429 -0.0171429 -0.09 -0.00571429 -0.0171429 -0.09
          0.00571429 -0.0171429 -0.09 0.0171429 -0.0171429 -0.09 0.0285714 -0.0171429 -0.09 0.04 -0.0171429 -0.09
          -0.04 -0.00571429 -0.09 -0.0285714 -0.00571429 -0.09 -0.0171429 -0.00571429 -0.09 -0.00571429 -0.00571429 -0.09
          0.00571429 -0.00571429 -0.09 0.0171429 -0.00571429 -0.09 0.0285714 -0.00571429 -0.09 0.04 -0.00571429 -0.09
          -0.04 0.00571429 -0.09 -0.0285714 0.00571429 -0.09 -0.0171429 0.00571429 -0.09 -0.00571429 0.00571429 -0.09
          0.00571429 0.00571429 -0.09 0.0171429 0.00571429 -0.09 0.0285714 0.00571429 -0.09 0.04 0.00571429 -0.09
          -0.04 0.0171429 -0.09 -0.0285714 0.0171429 -0.09 -0.0171429 0.0171429 -0.09 -0.00571429 0.0171429 -0.09
          0.00571429 0.0171429 -0.09 0.0171429 0.0171429 -0.09 0.0285714 0.0171429 -0.09 0.04 0.0171429 -0.09
          -0.04 0.0285714 -0.09 -0.0285714 0.0285714 -0.09 -0.0171429 0.0285714 -0.09 -0.00571429 0.0285714 -0.09
          0.00571429 0.0285714 -0.09 0.0171429 0.0285714 -0.09 0.0285714 0.0285714 -0.09 0.04 0.0285714 -0.09
          -0.04 0.04 -0.09 -0.0285714 0.04 -0.09 -0.0171429 0.04 -0.09 -0.00571429 0.04 -0.09
          0.00571429 0.04 -0.09 0.0171429 0.04 -0.09 0.0285714 0.04 -0.09 0.04 0.04 -0.09
          -0.04 -0.04 -0.08 -0.0285714 -0.04 -0.08 -0.04 -0.0285714 -0.08 -0.0285714 -0.0285714 -0.08
          -0.0171429 -0.04 -0.08 -0.0171429 -0.0285714 -0.08 -0.00571429 -0.04 -0.08 -0.00571429 -0.0285714 -0.08
          0.00571429 -0.04 -0.08 0.00571429 -0.0285714 -0.08 0.0171429 -0.04 -0.08 0.0171429 -0.0285714 -0.08
          0.0285714 -0.04 -0.08 0.0285714 -0.0285714 -0.08 0.04 -0.04 -0.08 0.04 -0.0285714 -0.08
          -0.04 -0.0171429 -0.08 -0.0285714 -0.0171429 -0.08 -0.0171429 -0.0171429 -0.08 -0.00571429 -0.0171429 -0.08
          0.00571429 -0.0171429 -0.08 0.0171429 -0.0171429 -0.08 0.0285714 -0.0171429 -0.08 0.04 -0.0171429 -0.08
          -0.04 -0.00571429 -0.08 -0.0285714 -0.00571429 -0.08 -0.0171429 -0.00571429 -0.08 -0.00571429 -0.00571429 -0.08
          0.00571429 -0.00571429 -0.08 0.0171429 -0.00571429 -0.08 0.0285714 -0.00571429 -0.08 0.04 -0.00571429 -0.08