<?xml version="1.0"?>
<VTKFile type="UnstructuredGrid" version="0.1" byte_order="LittleEndian">
  <UnstructuredGrid>
    <Piece NumberOfCells="15" NumberOfPoints="64">
      <CellData Scalars="p (Pa)">
        <DataArray type="Float32" Name="p (Pa)" NumberOfComponents="1" format="ascii">
          30869 29830.6 27675 23967.5 17820.4 9681.91 2575.38 -1265.8 -3468.84 -3073.45 -3959.78 -2227.95
          2057.1 3391.12 3495.82
        </DataArray>
        <DataArray type="Float32" Name="saturation" NumberOfComponents="1" format="ascii">
          0.29564 0.294668 0.292723 0.289584 0.284883 0.279456 0.275318 0.273276 0.27216 0.272357 0.271916 0.272784
          0.275035 0.275769 0.275827
        </DataArray>
        <DataArray type="Float32" Name="process rank" NumberOfComponents="1" format="ascii">
          0 0 0 0 0 0 0 0 0 0 0 0
          0 0 0
        </DataArray>
      </CellData>
      <Points>
        <DataArray type="Float32" Name="Coordinates" NumberOfComponents="3" format="ascii">
          -0.04 -0.04 -0.15 0.04 -0.04 -0.15 -0.04 0.04 -0.15 0.04 0.04 -0.15
          -0.04 -0.04 -0.14 0.04 -0.04 -0.14 -0.04 0.04 -0.14 0.04 0.04 -0.14
          -0.04 -0.04 -0.13 0.04 -0.04 -0.13 -0.04 0.04 -0.13 0.04 0.04 -0.13
          -0.04 -0.04 -0.12 0.04 -0.04 -0.12 -0.04 0.04 -0.12 0.04 0.04 -0.12
          -0.04 -0.04 -0.11 0.04 -0.04 -0.11 -0.04 0.04 -0.11 0.04 0.04 -0.11
          -0.04 -0.04 -0.1 0.04 -0.04 -0.1 -0.04 0.04 -0.1 0.04 0.04 -0.1
          -0.04 -0.04 -0.09 0.04 -0.04 -0.09 -0.04 0.04 -0.09 0.04 0.04 -0.09
          -0.04 -0.04 -0.08 0.04 -0.04 -0.08 -0.04 0.04 -0.08 0.04 0.04 -0.08
          -0.04 -0.04 -0.07 0.04 -0.04 -0.07 -0.04 0.04 -0.07 0.04 0.04 -0.07
          -0.04 -0.04 -0.06 0.04 -0.04 -0.06 -0.04 0.04 -0.06 0.04 0.04 -0.06
          -0.04 -0.04 -0.05 0.04 -0.04 -0.05 -0.04 0.04 -0.05 0.04 0.04 -0.05
          -0.04 -0.04 -0.04 0.04 -0.04 -0.04 -0.04 0.04 -0.04 0.04 0.04 -0.04
          -0.04 -0.04 -0.03 0.04 -0.04 -0.03 -0.04 0.04 -0.03 0.04 0.04 -0.03
          -0.04 -0.04 -0.02 0.04 -0.04 -0.02 -0.04 0.04 -0.02 0.04 0.04 -0.02
          -0.04 -0.04 -0.01 0.04 -0.04 -0.01 -0.04 0.04 -0.01 0.04 0.04 -0.01
          -0.04 -0.04 8.67362e-18 0.04 -0.04 8.67362e-18 -0.04 0.04 8.67362e-18 0.04 0.04 8.67362e-18
        </DataArray>
      </Points>
      <Cells>
        <DataArray type="Int32" Name="connectivity" NumberOfComponents="1" format="ascii">
          0 1 3 2 4 5 7 6 4 5 7 6
          8 9 11 10 8 9 11 10 12 13 15 14
          12 13 15 14 16 17 19 18 16 17 19 18
          20 21 23 22 20 21 23 22 24 25 27 26
          24 25 27 26 28 29 31 30 28 29 31 30
          32 33 35 34 32 33 35 34 36 37 39 38
          36 37 39 38 40 41 43 42 40 41 43 42
          44 45 47 46 44 45 47 46 48 49 51 50
          48 49 51 50 52 53 55 54 52 53 55 54
          56 57 59 58 56 57 59 58 60 61 63 62
        </DataArray>
        <DataArray type="Int32" Name="offsets" NumberOfComponents="1" format="ascii">
          8 16 24 32 40 48 56 64 72 80 88 96
          104 112 120
        </DataArray>
        <DataArray type="UInt8" Name="types" NumberOfComponents="1" format="ascii">
          12 12 12 12 12 12 12 12 12 12 12 12
          12 12 12
        </DataArray>
      </Cells>
    </Piece>
  </UnstructuredGrid>
</VTKFile>
