<?xml version="1.0"?>
<VTKFile type="UnstructuredGrid" version="0.1" byte_order="LittleEndian">
  <UnstructuredGrid>
    <Piece NumberOfCells="735" NumberOfPoints="1024">
      <CellData Scalars="p (Pa)">
        <DataArray type="Float32" Name="p (Pa)" NumberOfComponents="1" format="ascii">
          24388.1 23576.8 22257 21059.6 20661.7 20940.4 21293.7 24373.5 23509.1 22074.3 20736.9 20337.2
          20723.8 21158 24516.4 23636.1 22156.7 20741.7 20318 20782 21273.9 24958.3 24176.6 22901.8
          21738.2 21356.6 21662.1 22046.1 25623.9 24990.8 23998.4 23149.5 22868.2 23047.9 23298.7 26304.5
          25813.8 25068.9 24455.7 24243.8 24348.1 24507.4 26732.3 26324.6 25716 25220.8 25040.3 25108.7
          25224.4 22756.6 21626.3 19714 17933.8 17597.4 18301.4 18968 22663.7 21403.3 19170.2 16913.7
          16630.9 17701.4 18596.9 22748 21416.7 18982.4 16319.9 15892.5 17357 18480.7 23240.7 22074.8
          20075 18155.5 17763.4 18587.6 19421.1 24038.8 23106.1 21608.8 20374.1 20170.7 20643.1 21148.1
          24903.5 24211.8 23161.1 22356.6 22215.3 22497.9 22801.1 25458.8 24908.3 24095.8 23484.9 23356.2
          23550 23763 19484.3 17567.1 14041.3 10412.1 10510.8 12570.1 14107.1 19184.8 16878.4 12171.6
          6065.82 6911.42 10690.6 13051.3 19100.9 16516.1 10843 1807.36 1605.15 8571.17 12114.4 19688.5
          17472 13237.4 8492.3 8229.82 10936.1 13411.3 20760.9 18970.3 15872.1 13427 13778.4 15182.8
          16486.5 22078.2 20844.2 18921.1 17606.4 17799.4 18605.1 19308.7 22950.2 22039.7 20698.6 19809
          19875 20411.5 20875.1 14434.8 10965.7 3667.05 -5851.09 -3213.69 2678.08 6202.53 13700.9 9080.8
          -3015.37 -31505.5 -17927.7 -2972.23 3506.74 13234.9 7636.93 -9434.48 -69426.1 -66753.6 -13385.1 -46.3323
          13921 9212.15 -1596.27 -18438.2 -16946.6 -7965.52 1479.54 15364.6 11238.2 2467.74 -4215.28 372.42
          4484.8 8237.51 17635.8 15106 10793.4 8199.55 9914.52 12069.2 13744.8 19166.9 17500.2 14971.2
          13513.8 14220.9 15543.8 16537.4 7599.29 1532.63 -13708 -44841.2 -28045.8 -12495.3 -5151.46 6113.12
          -3050.13 -39303.1 -316530 -94047.7 -27737.8 -11036.1 4995.38 -7204.92 -73708.3 -1.06755e+06 -993567 -83126.6
          -22097.8 5636.56 -4689.33 -36189.7 -127054 -101178 -83808.8 -24232.1 7247.29 -4198.8 -46684.9 -78774.4
          -29744.7 -18156.6 -5533.55 11523.8 5933.74 -5974.51 -12554.6 -3388.27 2069.23 6023.72 14319.4 11218.2
          6099.53 3487.25 6133.69 9063.89 11040.8 -781.184 -10083.1 -36034.2 -110718 -62557.3 -32883.7 -20018.4
          -3205.02 -18335.5 -94623.6 -1.00591e+06 -184823 -59097.3 -29520.4 -4613.77 -23459.7 -120567 -1.10142e+06 -1.0793e+06
          -163163 -52207.7 -4441.77 -25518.2 -121488 -1.01627e+06 -277100 -1.03179e+06 -95303.4 -3594.11 -43474.7 -530598
          -1.01998e+06 -107437 -80475.2 -26216.2 4636.3 -7334.56 -48590.9 -73750.5 -23699.3 -11298.8 -2619.23 9386.26
          4167.48 -5843.79 -10719.5 -3295.23 2166.94 5526.4 -10801.9 -23582 -54261.2 -133744 -123631 -65572.7
          -40490.3 -14643.4 -36416.7 -117010 -898141 -799092 -113485 -51469.5 -14510 -39026.4 -147954 -1.09928e+06
          -1.09366e+06 -208211 -76286.1 -12687.9 -41633 -176916 -1.09612e+06 -1.06006e+06 -1.04372e+06 -119151 -10814.2 -72587.5
          -1.04692e+06 -1.02684e+06 -159961 -96485.6 -35311.1 518.778 -15123.1 -78152.6 -97425 -35113 -17546.2 -7308.81
          6484.92 189.497 -12677.5 -18330 -8755.29 -1788.06 2193.61 -23736.7 -45629.8 -78395.5 -115378 -142977
          -157683 -76454.8 -33588.6 -96430.1 -179376 -259838 -287138 -131263 -75872.7 -24847.4 -60921.7 -208634
          -1.09018e+06 -1.10405e+06 -189520 -90013.1 -15514.2 -41362.2 -153852 -1.09614e+06 -285130 -149121 -68108.8 -7530.29
          -29658.9 -130397 -988523 -113989 -48248.9 -27396.1 1845.27 -7631.51 -32003.2 -77873.5 -28828.6 -13176.2
          -6394.13 6927.63 2018.01 -7111.31 -14403.2 -7317.99 -1302.74 1971.52 -37114.4 -94501.7 -148675 -150760
          -298236 -1.05747e+06 -174591 -76758.7 -758920 -1.06653e+06 -328762 -1.08054e+06 -247675 -126515 -34866.5 -121317
          -1.05017e+06 -1.09979e+06 -1.10469e+06 -203601 -167340 -14690.9 -38525.9 -143418 -1.0287e+06 -186646 -84748.7 -66199.3
          -2951.22 -14177.8 -44501.9 -123510 -54362 -30936.3 -22858.8 5155.7 -361.476 -11490 -24670.8 -14920.4
          -7494.58 -3872.46 9248.74 5928 260.798 -4234.63 -1902 1500.28 3559.5 -26780.8 -49990.2 -87545.1
          -181549 -1.0678e+06 -1.078e+06 -231153 -36402.6 -102153 -189794 -301085 -1.08415e+06 -333481 -227426 -25144
          -64593.2 -217577 -1.07477e+06 -1.09938e+06 -276012 -1.03604e+06 -9614.64 -25347.3 -69035.3 -169621 -139457 -84635.5
          -112718 1491.59 -5542.49 -20507.3 -40232 -34111.4 -24718.1 -23193.8 8523.78 4955.42 -1432.79 -7478.69
          -6279 -3216.3 -1561.47 11924.3 9628.33 5879.18 2828.13 2995.53 4533.25 5643.7 -16248.5 -29998.3
          -59640.9 -115924 -285436 -332950 -171375 -19868.3 -45624 -128369 -248176 -1.09406e+06 -399544 -242356
          -18397.7 -77811.2 -974146 -1.06585e+06 -1.10767e+06 -1.08999e+06 -1.01283e+06 -5054.96 -20790.8 -82927.5 -125453 -129744
          -112124 -106156 5031.61 -687.858 -13014 -24406.8 -25993.6 -21672.1 -19413 11255.7 8524.4 3749.41
          -541.542 -1363.55 -7.42874 1061.22 14208.3 12441.4 9571.75 7092.51 6458.52 7098.53 7747.1 -9051.55
          -19353.5 -43763.8 -95755.6 -248405 -1.0481e+06 -181543 -10336 -25065.3 -67883 -204703 -1.08565e+06 -1.08866e+06
          -192406 -8529.56 -29259.6 -130194 -1.10021e+06 -1.10624e+06 -233616 -151096 -35.3775 -9911.89 -37085.2 -101742
          -115431 -61490 -46961.3 7920.46 3428.94 -5706.3 -17197.8 -20439.5 -14178.3 -10719.2 13273 10971.6
          6944.44 2956.65 1669.66 2900.52 4010.57 15884.5 14362.6 11863 9564.46 8705.3 9108.7 9645.83
          -4969.98 -14438.3 -38709.8 -92797.6 -202218 -182696 -90396.1 -5427.24 -17606.8 -56222.3 -198776 -1.07294e+06
          -233183 -93371.2 -3166.98 -15496.1 -53850.7 -186916 -1.10469e+06 -148023 -67902.8 3053.51 -4686.32 -23769.1
          -60310.1 -104945 -45430.9 -28384.8 9680.24 5587.22 -2746.05 -13514 -17643.8 -9878.69 -5489.65 14494.2
          12287.7 8350.69 4303.92 3142.03 4773.81 6152.18 16916.9 15448.2 12997.7 10695.7 9897.59 10414.6
          11031.1 -3073.35 -13018.1 -42293.2 -133346 -172680 -91709.8 -58131.4 -3569.99 -17665 -91813.8 -1.06622e+06
          -1.08509e+06 -150745 -63129 -1401.78 -14060.1 -59201 -257994 -1.11107e+06 -131033 -49962.1 3955.08 -4922.33
          -31680.4 -114035 -110885 -40891.3 -21778.3 10244.9 5564.3 -5190.64 -22368 -19525.5 -8453.52 -3028.57
          14980.2 12555.7 7968.32 2923.05 2970.76 5530.44 7308.46 17386.9 15833.5 13177 10664.7 10177
          11026.9 11816.9 -2176.67 -11437.9 -35056.2 -79830.9 -97449.4 -65030.3 -45693.3 -2740.41 -15290.5 -57379.2
          -196557 -225252 -89318.7 -49567.8 -1391.21 -17291.9 -102894 -1.11619e+06 -1.10325e+06 -123117 -43916.3 3529.22
          -9250.82 -79937.5 -1.09897e+06 -141258 -41181.4 -19657.7 10078.4 4169.88 -13241.9 -67408.2 -26028.4 -8749.93
          -2230.06 15000.8 12227.8 6463.65 -1277.01 1724.95 5539.05 7702.8 17479.5 15804.9 12848.8 9962.43
          9933.47 11147.7 12097
        </DataArray>
        <DataArray type="Float32" Name="saturation" NumberOfComponents="1" format="ascii">
          0.289928 0.289267 0.288217 0.287288 0.286984 0.287196 0.287467 0.289916 0.289213 0.288073 0.287041 0.286738
          0.287031 0.287363 0.290033 0.289315 0.288138 0.287045 0.286723 0.287075 0.287452 0.290399 0.289754 0.288726
          0.287811 0.287516 0.287752 0.288051 0.290956 0.290426 0.289609 0.288924 0.2887 0.288843 0.289044 0.291533
          0.291116 0.290491 0.289983 0.289809 0.289895 0.290026 0.291901 0.291551 0.291033 0.290617 0.290467 0.290524
          0.29062 0.288611 0.287724 0.28627 0.284965 0.284723 0.28523 0.285717 0.288537 0.287552 0.285866 0.284237
          0.284037 0.284797 0.285445 0.288604 0.287562 0.285728 0.283819 0.283522 0.284551 0.285361 0.288997 0.288074
          0.28654 0.285125 0.284842 0.285439 0.286052 0.289642 0.288889 0.287711 0.286766 0.286612 0.28697 0.287355
          0.290353 0.289783 0.288933 0.288295 0.288184 0.288406 0.288646 0.290817 0.290357 0.289688 0.289193 0.28909
          0.289246 0.289418 0.286099 0.284701 0.282261 0.279911 0.279973 0.28129 0.282305 0.285877 0.284212 0.281031
          0.277288 0.277783 0.280086 0.281605 0.285815 0.283957 0.280182 0.2749 0.274791 0.278776 0.280994 0.286251
          0.284633 0.281727 0.278728 0.278569 0.280241 0.281842 0.287059 0.285719 0.283508 0.281852 0.282086 0.283034
          0.283936 0.288076 0.287123 0.285683 0.284729 0.284868 0.285451 0.285969 0.288765 0.288046 0.287012 0.286341
          0.28639 0.286794 0.287146 0.282526 0.28026 0.275922 0.270995 0.272287 0.275375 0.277368 0.282034 0.279087
          0.272387 0.260643 0.265674 0.272408 0.275833 0.281726 0.278214 0.269319 0.250137 0.25075 0.267569 0.273911
          0.282181 0.279167 0.273106 0.265469 0.266074 0.269995 0.274723 0.283158 0.280433 0.275259 0.27179 0.274132
          0.276382 0.278574 0.28475 0.282981 0.280151 0.278551 0.279601 0.280965 0.282063 0.285864 0.284653 0.282889
          0.28191 0.282382 0.283281 0.283972 0.278191 0.274751 0.267431 0.25645 0.261844 0.267955 0.271333 0.277316
          0.272369 0.258113 0.223417 0.245131 0.261954 0.268597 0.276672 0.270351 0.249185 0.206183 0.20699 0.247218
          0.264034 0.27704 0.271558 0.259096 0.23982 0.243866 0.247082 0.263229 0.277982 0.271798 0.255918 0.248106
          0.261248 0.265582 0.271148 0.280615 0.277212 0.270935 0.267929 0.2722 0.275042 0.277264 0.282448 0.28042
          0.277308 0.275822 0.277328 0.279076 0.280307 0.273527 0.269024 0.259146 0.242282 0.251746 0.260179 0.264841
          0.272292 0.26551 0.245026 0.206849 0.232986 0.252599 0.261326 0.271595 0.263518 0.240763 0.205841 0.206063
          0.235266 0.254388 0.271679 0.262755 0.240627 0.206733 0.225714 0.206563 0.244903 0.272098 0.25685 0.215187
          0.206692 0.242814 0.247755 0.2625 0.276468 0.27029 0.25538 0.249176 0.263428 0.268481 0.272586 0.279274
          0.276203 0.270998 0.268739 0.272247 0.275095 0.276976 0.268702 0.263472 0.253841 0.238892 0.240312 0.251026
          0.257748 0.267032 0.259023 0.241299 0.208169 0.209601 0.241844 0.254587 0.267089 0.258199 0.237055 0.205862
          0.205918 0.230816 0.24863 0.267871 0.257401 0.233785 0.205893 0.206261 0.206434 0.240975 0.268696 0.24943
          0.2064 0.206617 0.235629 0.24469 0.259379 0.274209 0.26683 0.248236 0.244523 0.259444 0.265829 0.270302
          0.277533 0.274035 0.267875 0.265512 0.269629 0.273008 0.27511 0.263414 0.256221 0.248185 0.24155 0.237679
          0.235891 0.248594 0.259944 0.2447 0.233533 0.226845 0.225094 0.239231 0.248718 0.263001 0.252145 0.230779
          0.205953 0.205815 0.232528 0.245879 0.266666 0.257482 0.236341 0.205893 0.225216 0.236911 0.250437 0.270198
          0.261278 0.239351 0.207048 0.241765 0.255475 0.262075 0.27492 0.270151 0.260475 0.248295 0.261568 0.267659
          0.270735 0.277793 0.275014 0.270395 0.267134 0.270298 0.273257 0.274989 0.2588 0.245048 0.236966 0.236712
          0.224438 0.206288 0.234027 0.24853 0.210256 0.206194 0.222774 0.20605 0.227695 0.239897 0.259524 0.240652
          0.206365 0.205857 0.205809 0.231223 0.234804 0.267012 0.258355 0.237623 0.206596 0.232807 0.246896 0.250879
          0.272419 0.26723 0.256549 0.24033 0.253815 0.260837 0.263745 0.276764 0.273746 0.268396 0.263066 0.266915
          0.270215 0.27196 0.279189 0.277208 0.274073 0.271781 0.27295 0.274734 0.275862 0.262296 0.254991 0.24635
          0.233313 0.206181 0.206076 0.228929 0.259027 0.243699 0.232502 0.224274 0.206014 0.222534 0.229222 0.262892
          0.251258 0.23002 0.206109 0.205861 0.225783 0.206517 0.269237 0.262817 0.250225 0.234556 0.238133 0.246918
          0.241965 0.274729 0.271143 0.264649 0.257827 0.259772 0.263049 0.263618 0.278747 0.276649 0.27319 0.270222
          0.27079 0.272286 0.273124 0.280872 0.279423 0.27718 0.275457 0.275549 0.276409 0.277044 0.266361 0.26116
          0.252463 0.241466 0.225198 0.222561 0.234368 0.2649 0.256223 0.239634 0.227659 0.205914 0.219558 0.228082
          0.265485 0.248308 0.207216 0.206201 0.205779 0.205955 0.206772 0.271379 0.264539 0.247258 0.240049 0.239442
          0.242059 0.243025 0.276693 0.273576 0.267729 0.263164 0.262581 0.264198 0.26508 0.280444 0.278748 0.275968
          0.273652 0.273226 0.273931 0.274498 0.282373 0.281206 0.279388 0.27789 0.277517 0.277894 0.27828 0.269493
          0.265103 0.256765 0.244821 0.227643 0.206387 0.233313 0.268911 0.262921 0.250489 0.231125 0.205998 0.205968
          0.232252 0.269733 0.261417 0.239379 0.205853 0.205793 0.228739 0.236671 0.273917 0.269102 0.258809 0.243769
          0.241541 0.252006 0.255839 0.278383 0.27579 0.271064 0.265971 0.264676 0.26723 0.268739 0.281751 0.280263
          0.277803 0.275528 0.274825 0.275497 0.276115 0.283517 0.282477 0.280832 0.279384 0.278857 0.279104 0.279434
          0.271421 0.267119 0.258298 0.24536 0.231347 0.233198 0.245807 0.271199 0.265804 0.25333 0.231659 0.206128
          0.228773 0.245254 0.272311 0.266674 0.253949 0.23278 0.205809 0.237046 0.250484 0.275581 0.271559 0.263402
          0.252296 0.243227 0.256278 0.261724 0.279455 0.277011 0.272522 0.267514 0.265789 0.269117 0.271169 0.282566
          0.281106 0.278642 0.27628 0.27563 0.276546 0.277339 0.284239 0.283215 0.28157 0.280089 0.27959 0.279913
          0.280301 0.272358 0.267728 0.257202 0.238946 0.234229 0.245561 0.252842 0.27211 0.265781 0.245542 0.206197
          0.206004 0.236714 0.251608 0.273206 0.26728 0.252573 0.226971 0.205746 0.239263 0.254999 0.276083 0.271444
          0.260584 0.241758 0.242256 0.257625 0.264157 0.279806 0.276998 0.271314 0.263931 0.265035 0.269769 0.27238
          0.282895 0.28128 0.278412 0.275509 0.275536 0.276979 0.278018 0.284572 0.283481 0.281687 0.28007 0.279764
          0.280298 0.280803 0.27281 0.268419 0.259462 0.247888 0.244518 0.251154 0.256203 0.272525 0.26676 0.253033
          0.231863 0.229394 0.246011 0.255108 0.273212 0.265932 0.243573 0.205696 0.205823 0.240387 0.25672 0.275845
          0.269402 0.247866 0.205865 0.237899 0.257537 0.264983 0.279703 0.276204 0.267631 0.250599 0.262568 0.269632
          0.272783 0.282909 0.281068 0.27752 0.273271 0.274855 0.276984 0.278253 0.284639 0.283461 0.281472 0.27963
          0.279612 0.280375 0.280983
        </DataArray>
        <DataArray type="Float32" Name="process rank" NumberOfComponents="1" format="ascii">
          0 0 0 0 0 0 0 0 0 0 0 0
          0 0 0 0 0 0 0 0 0 0 0 0
          0 0 0 0 0 0 0 0 0 0 0 0
          0 0 0 0 0 0 0 0 0 0 0 0
          0 0 0 0 0 0 0 0 0 0 0 0
          0 0 0 0 0 0 0 0 0 0 0 0
          0 0 0 0 0 0 0 0 0 0 0 0
          0 0 0 0 0 0 0 0 0 0 0 0
          0 0 0 0 0 0 0 0 0 0 0 0
          0 0 0 0 0 0 0 0 0 0 0 0
          0 0 0 0 0 0 0 0 0 0 0 0
          0 0 0 0 0 0 0 0 0 0 0 0
          0 0 0 0 0 0 0 0 0 0 0 0
          0 0 0 0 0 0 0 0 0 0 0 0
          0 0 0 0 0 0 0 0 0 0 0 0
          0 0 0 0 0 0 0 0 0 0 0 0
          0 0 0 0 0 0 0 0 0 0 0 0
          0 0 0 0 0 0 0 0 0 0 0 0
          0 0 0 0 0 0 0 0 0 0 0 0
          0 0 0 0 0 0 0 0 0 0 0 0
          0 0 0 0 0 0 0 0 0 0 0 0
          0 0 0 0 0 0 0 0 0 0 0 0
          0 0 0 0 0 0 0 0 0 0 0 0
          0 0 0 0 0 0 0 0 0 0 0 0
          0 0 0 0 0 0 0 0 0 0 0 0
          0 0 0 0 0 0 0 0 0 0 0 0
          0 0 0 0 0 0 0 0 0 0 0 0
          0 0 0 0 0 0 0 0 0 0 0 0
          0 0 0 0 0 0 0 0 0 0 0 0
          0 0 0 0 0 0 0 0 0 0 0 0
          0 0 0 0 0 0 0 0 0 0 0 0
          0 0 0 0 0 0 0 0 0 0 0 0
          0 0 0 0 0 0 0 0 0 0 0 0
          0 0 0 0 0 0 0 0 0 0 0 0
          0 0 0 0 0 0 0 0 0 0 0 0
          0 0 0 0 0 0 0 0 0 0 0 0
          0 0 0 0 0 0 0 0 0 0 0 0
          0 0 0 0 0 0 0 0 0 0 0 0
          0 0 0 0 0 0 0 0 0 0 0 0
          0 0 0 0 0 0 0 0 0 0 0 0
          0 0 0 0 0 0 0 0 0 0 0 0
          0 0 0 0 0 0 0 0 0 0 0 0
          0 0 0 0 0 0 0 0 0 0 0 0
          0 0 0 0 0 0 0 0 0 0 0 0
          0 0 0 0 0 0 0 0 0 0 0 0
          0 0 0 0 0 0 0 0 0 0 0 0
          0 0 0 0 0 0 0 0 0 0 0 0
          0 0 0 0 0 0 0 0 0 0 0 0
          0 0 0 0 0 0 0 0 0 0 0 0
          0 0 0 0 0 0 0 0 0 0 0 0
          0 0 0 0 0 0 0 0 0 0 0 0
          0 0 0 0 0 0 0 0 0 0 0 0
          0 0 0 0 0 0 0 0 0 0 0 0
          0 0 0 0 0 0 0 0 0 0 0 0
          0 0 0 0 0 0 0 0 0 0 0 0
          0 0 0 0 0 0 0 0 0 0 0 0
          0 0 0 0 0 0 0 0 0 0 0 0
          0 0 0 0 0 0 0 0 0 0 0 0
          0 0 0 0 0 0 0 0 0 0 0 0
          0 0 0 0 0 0 0 0 0 0 0 0
          0 0 0 0 0 0 0 0 0 0 0 0
          0 0 0
        </DataArray>
      </CellData>
      <Points>
        <DataArray type="Float32" Name="Coordinates" NumberOfComponents="3" format="ascii">
          -0.04 -0.04 -0.15 -0.0285714 -0.04 -0.15 -0.04 -0.0285714 -0.15 -0.0285714 -0.0285714 -0.15
          -0.04 -0.04 -0.14 -0.0285714 -0.04 -0.14 -0.04 -0.0285714 -0.14 -0.0285714 -0.0285714 -0.14
          -0.0171429 -0.04 -0.15 -0.0171429 -0.0285714 -0.15 -0.0171429 -0.04 -0.14 -0.0171429 -0.0285714 -0.14
          -0.00571429 -0.04 -0.15 -0.00571429 -0.0285714 -0.15 -0.00571429 -0.04 -0.14 -0.00571429 -0.0285714 -0.14
          0.00571429 -0.04 -0.15 0.00571429 -0.0285714 -0.15 0.00571429 -0.04 -0.14 0.00571429 -0.0285714 -0.14
          0.0171429 -0.04 -0.15 0.0171429 -0.0285714 -0.15 0.0171429 -0.04 -0.14 0.0171429 -0.0285714 -0.14
          0.0285714 -0.04 -0.15 0.0285714 -0.0285714 -0.15 0.0285714 -0.04 -0.14 0.0285714 -0.0285714 -0.14
          0.04 -0.04 -0.15 0.04 -0.0285714 -0.15 0.04 -0.04 -0.14 0.04 -0.0285714 -0.14
          -0.04 -0.0171429 -0.15 -0.0285714 -0.0171429 -0.15 -0.04 -0.0171429 -0.14 -0.0285714 -0.0171429 -0.14
          -0.0171429 -0.0171429 -0.15 -0.0171429 -0.0171429 -0.14 -0.00571429 -0.0171429 -0.15 -0.00571429 -0.0171429 -0.14
          0.00571429 -0.0171429 -0.15 0.00571429 -0.0171429 -0.14 0.0171429 -0.0171429 -0.15 0.0171429 -0.0171429 -0.14
          0.0285714 -0.0171429 -0.15 0.0285714 -0.0171429 -0.14 0.04 -0.0171429 -0.15 0.04 -0.0171429 -0.14
          -0.04 -0.00571429 -0.15 -0.0285714 -0.00571429 -0.15 -0.04 -0.00571429 -0.14 -0.0285714 -0.00571429 -0.14
          -0.0171429 -0.00571429 -0.15 -0.0171429 -0.00571429 -0.14 -0.00571429 -0.00571429 -0.15 -0.00571429 -0.00571429 -0.14
          0.00571429 -0.00571429 -0.15 0.00571429 -0.00571429 -0.14 0.0171429 -0.00571429 -0.15 0.0171429 -0.00571429 -0.14
          0.0285714 -0.00571429 -0.15 0.0285714 -0.00571429 -0.14 0.04 -0.00571429 -0.15 0.04 -0.00571429 -0.14
          -0.04 0.00571429 -0.15 -0.0285714 0.00571429 -0.15 -0.04 0.00571429 -0.14 -0.0285714 0.00571429 -0.14
          -0.0171429 0.00571429 -0.15 -0.0171429 0.00571429 -0.14 -0.00571429 0.00571429 -0.15 -0.00571429 0.00571429 -0.14
          0.00571429 0.00571429 -0.15 0.00571429 0.00571429 -0.14 0.0171429 0.00571429 -0.15 0.0171429 0.00571429 -0.14
          0.0285714 0.00571429 -0.15 0.0285714 0.00571429 -0.14 0.04 0.00571429 -0.15 0.04 0.00571429 -0.14
          -0.04 0.0171429 -0.15 -0.0285714 0.0171429 -0.15 -0.04 0.0171429 -0.14 -0.0285714 0.0171429 -0.14
          -0.0171429 0.0171429 -0.15 -0.0171429 0.0171429 -0.14 -0.00571429 0.0171429 -0.15 -0.00571429 0.0171429 -0.14
          0.00571429 0.0171429 -0.15 0.00571429 0.0171429 -0.14 0.0171429 0.0171429 -0.15 0.0171429 0.0171429 -0.14
          0.0285714 0.0171429 -0.15 0.0285714 0.0171429 -0.14 0.04 0.0171429 -0.15 0.04 0.0171429 -0.14
          -0.04 0.0285714 -0.15 -0.0285714 0.0285714 -0.15 -0.04 0.0285714 -0.14 -0.0285714 0.0285714 -0.14
          -0.0171429 0.0285714 -0.15 -0.0171429 0.0285714 -0.14 -0.00571429 0.0285714 -0.15 -0.00571429 0.0285714 -0.14
          0.00571429 0.0285714 -0.15 0.00571429 0.0285714 -0.14 0.0171429 0.0285714 -0.15 0.0171429 0.0285714 -0.14
          0.0285714 0.0285714 -0.15 0.0285714 0.0285714 -0.14 0.04 0.0285714 -0.15 0.04 0.0285714 -0.14
          -0.04 0.04 -0.15 -0.0285714 0.04 -0.15 -0.04 0.04 -0.14 -0.0285714 0.04 -0.14
          -0.0171429 0.04 -0.15 -0.0171429 0.04 -0.14 -0.00571429 0.04 -0.15 -0.00571429 0.04 -0.14
          0.00571429 0.04 -0.15 0.00571429 0.04 -0.14 0.0171429 0.04 -0.15 0.0171429 0.04 -0.14
          0.0285714 0.04 -0.15 0.0285714 0.04 -0.14 0.04 0.04 -0.15 0.04 0.04 -0.14
          -0.04 -0.04 -0.13 -0.0285714 -0.04 -0.13 -0.04 -0.0285714 -0.13 -0.0285714 -0.0285714 -0.13
          -0.0171429 -0.04 -0.13 -0.0171429 -0.0285714 -0.13 -0.00571429 -0.04 -0.13 -0.00571429 -0.0285714 -0.13
          0.00571429 -0.04 -0.13 0.00571429 -0.0285714 -0.13 0.0171429 -0.04 -0.13 0.0171429 -0.0285714 -0.13
          0.0285714 -0.04 -0.13 0.0285714 -0.0285714 -0.13 0.04 -0.04 -0.13 0.04 -0.0285714 -0.13
          -0.04 -0.0171429 -0.13 -0.0285714 -0.0171429 -0.13 -0.0171429 -0.0171429 -0.13 -0.00571429 -0.0171429 -0.13
          0.00571429 -0.0171429 -0.13 0.0171429 -0.0171429 -0.13 0.0285714 -0.0171429 -0.13 0.04 -0.0171429 -0.13
          -0.04 -0.00571429 -0.13 -0.0285714 -0.00571429 -0.13 -0.0171429 -0.00571429 -0.13 -0.00571429 -0.00571429 -0.13
          0.00571429 -0.00571429 -0.13 0.0171429 -0.00571429 -0.13 0.0285714 -0.00571429 -0.13 0.04 -0.00571429 -0.13
          -0.04 0.00571429 -0.13 -0.0285714 0.00571429 -0.13 -0.0171429 0.00571429 -0.13 -0.00571429 0.00571429 -0.13
          0.00571429 0.00571429 -0.13 0.0171429 0.00571429 -0.13 0.0285714 0.00571429 -0.13 0.04 0.00571429 -0.13
          -0.04 0.0171429 -0.13 -0.0285714 0.0171429 -0.13 -0.0171429 0.0171429 -0.13 -0.00571429 0.0171429 -0.13
          0.00571429 0.0171429 -0.13 0.0171429 0.0171429 -0.13 0.0285714 0.0171429 -0.13 0.04 0.0171429 -0.13
          -0.04 0.0285714 -0.13 -0.0285714 0.0285714 -0.13 -0.0171429 0.0285714 -0.13 -0.00571429 0.0285714 -0.13
          0.00571429 0.0285714 -0.13 0.0171429 0.0285714 -0.13 0.0285714 0.0285714 -0.13 0.04 0.0285714 -0.13
          -0.04 0.04 -0.13 -0.0285714 0.04 -0.13 -0.0171429 0.04 -0.13 -0.00571429 0.04 -0.13
          0.00571429 0.04 -0.13 0.0171429 0.04 -0.13 0.0285714 0.04 -0.13 0.04 0.04 -0.13
          -0.04 -0.04 -0.12 -0.0285714 -0.04 -0.12 -0.04 -0.0285714 -0.12 -0.0285714 -0.0285714 -0.12
          -0.0171429 -0.04 -0.12 -0.0171429 -0.0285714 -0.12 -0.00571429 -0.04 -0.12 -0.00571429 -0.0285714 -0.12
          0.00571429 -0.04 -0.12 0.00571429 -0.0285714 -0.12 0.0171429 -0.04 -0.12 0.0171429 -0.0285714 -0.12
          0.0285714 -0.04 -0.12 0.0285714 -0.0285714 -0.12 0.04 -0.04 -0.12 0.04 -0.0285714 -0.12
          -0.04 -0.0171429 -0.12 -0.0285714 -0.0171429 -0.12 -0.0171429 -0.0171429 -0.12 -0.00571429 -0.0171429 -0.12
          0.00571429 -0.0171429 -0.12 0.0171429 -0.0171429 -0.12 0.0285714 -0.0171429 -0.12 0.04 -0.0171429 -0.12
          -0.04 -0.00571429 -0.12 -0.0285714 -0.00571429 -0.12 -0.0171429 -0.00571429 -0.12 -0.00571429 -0.00571429 -0.12
          0.00571429 -0.00571429 -0.12 0.0171429 -0.00571429 -0.12 0.0285714 -0.00571429 -0.12 0.04 -0.00571429 -0.12
          -0.04 0.00571429 -0.12 -0.0285714 0.00571429 -0.12 -0.0171429 0.00571429 -0.12 -0.00571429 0.00571429 -0.12
          0.00571429 0.00571429 -0.12 0.0171429 0.00571429 -0.12 0.0285714 0.00571429 -0.12 0.04 0.00571429 -0.12
          -0.04 0.0171429 -0.12 -0.0285714 0.0171429 -0.12 -0.0171429 0.0171429 -0.12 -0.00571429 0.0171429 -0.12
          0.00571429 0.0171429 -0.12 0.0171429 0.0171429 -0.12 0.0285714 0.0171429 -0.12 0.04 0.0171429 -0.12
          -0.04 0.0285714 -0.12 -0.0285714 0.0285714 -0.12 -0.0171429 0.0285714 -0.12 -0.00571429 0.0285714 -0.12
          0.00571429 0.0285714 -0.12 0.0171429 0.0285714 -0.12 0.0285714 0.0285714 -0.12 0.04 0.0285714 -0.12
          -0.04 0.04 -0.12 -0.0285714 0.04 -0.12 -0.0171429 0.04 -0.12 -0.00571429 0.04 -0.12
          0.00571429 0.04 -0.12 0.0171429 0.04 -0.12 0.0285714 0.04 -0.12 0.04 0.04 -0.12
          -0.04 -0.04 -0.11 -0.0285714 -0.04 -0.11 -0.04 -0.0285714 -0.11 -0.0285714 -0.0285714 -0.11
          -0.0171429 -0.04 -0.11 -0.0171429 -0.0285714 -0.11 -0.00571429 -0.04 -0.11 -0.00571429 -0.0285714 -0.11
          0.00571429 -0.04 -0.11 0.00571429 -0.0285714 -0.11 0.0171429 -0.04 -0.11 0.0171429 -0.0285714 -0.11
          0.0285714 -0.04 -0.11 0.0285714 -0.0285714 -0.11 0.04 -0.04 -0.11 0.04 -0.0285714 -0.11
          -0.04 -0.0171429 -0.11 -0.0285714 -0.0171429 -0.11 -0.0171429 -0.0171429 -0.11 -0.00571429 -0.0171429 -0.11
          0.00571429 -0.0171429 -0.11 0.0171429 -0.0171429 -0.11 0.0285714 -0.0171429 -0.11 0.04 -0.0171429 -0.11
          -0.04 -0.00571429 -0.11 -0.0285714 -0.00571429 -0.11 -0.0171429 -0.00571429 -0.11 -0.00571429 -0.00571429 -0.11
          0.00571429 -0.00571429 -0.11 0.0171429 -0.00571429 -0.11 0.0285714 -0.00571429 -0.11 0.04 -0.00571429 -0.11
          -0.04 0.00571429 -0.11 -0.0285714 0.00571429 -0.11 -0.0171429 0.00571429 -0.11 -0.00571429 0.00571429 -0.11
          0.00571429 0.00571429 -0.11 0.0171429 0.00571429 -0.11 0.0285714 0.00571429 -0.11 0.04 0.00571429 -0.11
          -0.04 0.0171429 -0.11 -0.0285714 0.0171429 -0.11 -0.0171429 0.0171429 -0.11 -0.00571429 0.0171429 -0.11
          0.00571429 0.0171429 -0.11 0.0171429 0.0171429 -0.11 0.0285714 0.0171429 -0.11 0.04 0.0171429 -0.11
          -0.04 0.0285714 -0.11 -0.0285714 0.0285714 -0.11 -0.0171429 0.0285714 -0.11 -0.00571429 0.0285714 -0.11
          0.00571429 0.0285714 -0.11 0.0171429 0.0285714 -0.11 0.0285714 0.0285714 -0.11 0.04 0.0285714 -0.11
          -0.04 0.04 -0.11 -0.0285714 0.04 -0.11 -0.0171429 0.04 -0.11 -0.00571429 0.04 -0.11
          0.00571429 0.04 -0.11 0.0171429 0.04 -0.11 0.0285714 0.04 -0.11 0.04 0.04 -0.11
          -0.04 -0.04 -0.1 -0.0285714 -0.04 -0.1 -0.04 -0.0285714 -0.1 -0.0285714 -0.0285714 -0.1
          -0.0171429 -0.04 -0.1 -0.0171429 -0.0285714 -0.1 -0.00571429 -0.04 -0.1 -0.00571429 -0.0285714 -0.1
          0.00571429 -0.04 -0.1 0.00571429 -0.0285714 -0.1 0.0171429 -0.04 -0.1 0.0171429 -0.0285714 -0.1
          0.0285714 -0.04 -0.1 0.0285714 -0.0285714 -0.1 0.04 -0.04 -0.1 0.04 -0.0285714 -0.1
          -0.04 -0.0171429 -0.1 -0.0285714 -0.0171429 -0.1 -0.0171429 -0.0171429 -0.1 -0.00571429 -0.0171429 -0.1
          0.00571429 -0.0171429 -0.1 0.0171429 -0.0171429 -0.1 0.0285714 -0.0171429 -0.1 0.04 -0.0171429 -0.1
          -0.04 -0.00571429 -0.1 -0.0285714 -0.00571429 -0.1 -0.0171429 -0.00571429 -0.1 -0.00571429 -0.00571429 -0.1
          0.00571429 -0.00571429 -0.1 0.0171429 -0.00571429 -0.1 0.0285714 -0.00571429 -0.1 0.04 -0.00571429 -0.1
          -0.04 0.00571429 -0.1 -0.0285714 0.00571429 -0.1 -0.0171429 0.00571429 -0.1 -0.00571429 0.00571429 -0.1
          0.00571429 0.00571429 -0.1 0.0171429 0.00571429 -0.1 0.0285714 0.00571429 -0.1 0.04 0.00571429 -0.1
          -0.04 0.0171429 -0.1 -0.0285714 0.0171429 -0.1 -0.0171429 0.0171429 -0.1 -0.00571429 0.0171429 -0.1
          0.00571429 0.0171429 -0.1 0.0171429 0.0171429 -0.1 0.0285714 0.0171429 -0.1 0.04 0.0171429 -0.1
          -0.04 0.0285714 -0.1 -0.0285714 0.0285714 -0.1 -0.0171429 0.0285714 -0.1 -0.00571429 0.0285714 -0.1
          0.00571429 0.0285714 -0.1 0.0171429 0.0285714 -0.1 0.0285714 0.0285714 -0.1 0.04 0.0285714 -0.1
          -0.04 0.04 -0.1 -0.0285714 0.04 -0.1 -0.0171429 0.04 -0.1 -0.00571429 0.04 -0.1
          0.00571429 0.04 -0.1 0.0171429 0.04 -0.1 0.0285714 0.04 -0.1 0.04 0.04 -0.1
          -0.04 -0.04 -0.09 -0.0285714 -0.04 -0.09 -0.04 -0.0285714 -0.09 -0.0285714 -0.0285714 -0.09
          -0.0171429 -0.04 -0.09 -0.0171429 -0.0285714 -0.09 -0.00571429 -0.04 -0.09 -0.00571429 -0.0285714 -0.09
          0.00571429 -0.04 -0.09 0.00571429 -0.0285714 -0.09 0.0171429 -0.04 -0.09 0.0171429 -0.0285714 -0.09
          0.0285714 -0.04 -0.09 0.0285714 -0.0285714 -0.09 0.04 -0.04 -0.09 0.04 -0.0285714 -0.09
          -0.04 -0.0171429 -0.09 -0.0285714 -0.0171429 -0.09 -0.0171429 -0.0171429 -0.09 -0.00571429 -0.0171429 -0.09
          0.00571429 -0.0171429 -0.09 0.0171429 -0.0171429 -0.09 0.0285714 -0.0171429 -0.09 0.04 -0.0171429 -0.09
          -0.04 -0.00571429 -0.09 -0.0285714 -0.00571429 -0.09 -0.0171429 -0.00571429 -0.09 -0.00571429 -0.00571429 -0.09
          0.00571429 -0.00571429 -0.09 0.0171429 -0.00571429 -0.09 0.0285714 -0.00571429 -0.09 0.04 -0.00571429 -0.09
          -0.04 0.00571429 -0.09 -0.0285714 0.00571429 -0.09 -0.0171429 0.00571429 -0.09 -0.00571429 0.00571429 -0.09
          0.00571429 0.00571429 -0.09 0.0171429 0.00571429 -0.09 0.0285714 0.00571429 -0.09 0.04 0.00571429 -0.09
          -0.04 0.0171429 -0.09 -0.0285714 0.0171429 -0.09 -0.0171429 0.0171429 -0.09 -0.00571429 0.0171429 -0.09
          0.00571429 0.0171429 -0.09 0.0171429 0.0171429 -0.09 0.0285714 0.0171429 -0.09 0.04 0.0171429 -0.09
          -0.04 0.0285714 -0.09 -0.0285714 0.0285714 -0.09 -0.0171429 0.0285714 -0.09 -0.00571429 0.0285714 -0.09
          0.00571429 0.0285714 -0.09 0.0171429 0.0285714 -0.09 0.0285714 0.0285714 -0.09 0.04 0.0285714 -0.09
          -0.04 0.04 -0.09 -0.0285714 0.04 -0.09 -0.0171429 0.04 -0.09 -0.00571429 0.04 -0.09
          0.00571429 0.04 -0.09 0.0171429 0.04 -0.09 0.0285714 0.04 -0.09 0.04 0.04 -0.09
          -0.04 -0.04 -0.08 -0.0285714 -0.04 -0.08 -0.04 -0.0285714 -0.08 -0.0285714 -0.0285714 -0.08
          -0.0171429 -0.04 -0.08 -0.0171429 -0.0285714 -0.08 -0.00571429 -0.04 -0.08 -0.00571429 -0.0285714 -0.08
          0.00571429 -0.04 -0.08 0.00571429 -0.0285714 -0.08 0.0171429 -0.04 -0.08 0.0171429 -0.0285714 -0.08
          0.0285714 -0.04 -0.08 0.0285714 -0.0285714 -0.08 0.04 -0.04 -0.08 0.04 -0.0285714 -0.08
          -0.04 -0.0171429 -0.08 -0.0285714 -0.0171429 -0.08 -0.0171429 -0.0171429 -0.08 -0.00571429 -0.0171429 -0.08
          0.00571429 -0.0171429 -0.08 0.0171429 -0.0171429 -0.08 0.0285714 -0.0171429 -0.08 0.04 -0.0171429 -0.08
          -0.04 -0.00571429 -0.08 -0.0285714 -0.00571429 -0.08 -0.0171429 -0.00571429 -0.08 -0.00571429 -0.00571429 -0.08
          0.00571429 -0.00571429 -0.08 0.0171429 -0.00571429 -0.08 0.0285714 -0.00571429 -0.08 0.04 -0.00571429 -0.08