<?xml version="1.0"?>
<VTKFile type="UnstructuredGrid" version="0.1" byte_order="LittleEndian">
  <UnstructuredGrid>
    <Piece NumberOfCells="735" NumberOfPoints="1024">
      <CellData Scalars="p (Pa)">
        <DataArray type="Float32" Name="p (Pa)" NumberOfComponents="1" format="ascii">
          32234 31990.2 31606.3 31260.9 31107.7 31128 31190.4 32259.1 32002.6 31595.1 31228.3 31082.6
          31127 31207.1 32358.7 32097.6 31679.6 31302 31168 31233.8 31327.8 32571.7 32336.5 31964.5
          31633.7 31507.8 31554.1 31632.4 32862.2 32669.8 32370.6 32107.8 31997 32016.7 32067.9 33140.5
          32988.8 32755.8 32551 32454.6 32454.5 32483.3 33309.8 33181.8 32986.1 32813 32724.9 32714.9
          32732.2 31586.1 31254.5 30723.2 30247.5 30083.4 30175.8 30301.4 31592.7 31229.8 30634.2 30089.7
          29946.9 30105.4 30275.2 31684.1 31300.5 30654.5 30042.9 29929.5 30156.1 30367.6 31930.7 31589.5
          31032.1 30530.2 30408.7 30562.8 30734.4 32284.6 32014.4 31587.8 31220.8 31112.2 31195.2 31304
          32630.6 32427.1 32114.4 31849.8 31753.3 31788.5 31849.8 32842.1 32676.8 32426.1 32213.3 32123.6
          32135.8 32173.7 30393.6 29861.3 28975.1 28163.8 27994.4 28288.5 28576 30352.5 29732.9 28641.2
          27559 27480 28006.8 28430.9 30415.8 29718.7 28408.4 26935.9 27000.9 27838.6 28421.7 30732.2
          30126.3 29064.1 28034.5 27973.8 28466.2 28923 31222 30760.3 30002.3 29352 29285.9 29551.7
          29821.2 31716 31390.9 30885.6 30477.4 30399.3 30529.9 30674.1 32020.3 31771.5 31396 31096
          31012 31080.7 31168.1 28698.4 27814.7 26251.4 24711.3 24596.1 25349.4 25965.5 28564.5 27456.5
          25264.7 22621.3 22940.2 24533.6 25559.1 28557.1 27206.5 24133.4 18965.3 20314.5 23608.2 25257.7
          28981.2 27840.5 25594.8 22994.4 23290.4 24688.9 25961.3 29687.5 28837.4 27325.5 25969.8 26172.7
          26881.6 27540.8 30432.8 29878.6 28987 28292.6 28318.6 28659.4 28976.1 30894.2 30500.4 29902.5
          29454 29407.6 29589.8 29769.5 26627 25235.7 22592 19651.7 19752.5 21344.3 22501.8 26353.8
          24479.4 20177.6 12846.7 15104.1 19433.3 21642.3 26222.9 23727.5 16245 -14469.1 -203.501 16203.4
          20676.9 26778.4 24703.2 19916 12458.5 14434.9 17578.8 21493.4 27763.5 26174.6 22881 19558.3
          21245 22886.6 24453.2 28885 27942.1 26316.2 25081.3 25506.1 26246.3 26875.8 29578.6 28967.6
          28020.3 27355 27424.4 27796.3 28118.9 24416.7 22460.6 18591.9 13919.1 14178.1 16586.9 18375.4
          24007.7 21292.2 14566.1 -16.9575 6363.41 13451.7 17038.1 23769.3 20026.8 7574.59 -52966.2 -19265.3
          6858.52 15211.3 24435.2 21091 12108.5 -6263.35 1630.06 -1101.91 15429.6 25693 22806.1 14565.5
          3207.44 14503 17551.9 20958.5 27304.8 25803.2 22897.4 20819.1 22353.2 23662.7 24721.5 28285.8
          27413.2 26015.3 25116.8 25401.9 26003.7 26487.2 22334.1 19858.5 15027.3 9458.67 8520.01 11220.8
          13734.9 21849.6 18443.4 10410 -3254.91 -1847.84 7451.14 12273.8 21647.5 17034.4 2144 -59974.9
          -41021.5 -603.577 10443.9 22484.6 17969.7 3785.65 -38002.8 -11708.8 -4722.14 11922.5 24016.3 19588.6
          -1272.38 -359.351 10367.5 14802.3 18630 26092.5 24119.2 19878.3 18500.2 20274 21910.4 23130.1
          27308.8 26254.8 24530.6 23607.5 23952 24665.8 25221.8 20578.1 17527 11615.9 5341.84 2225.34
          4134.22 8344.61 20049.5 15735.5 5768.44 -6235.11 -10271.2 1183.63 7390.71 20148 15008.6 -614.323
          -48415.8 -70950 -6033.88 6578.23 21479.2 17045.8 4000.86 -39665.3 -11663.5 3282.97 11125.7 23499.4
          20205.4 11681.7 980.541 10003.1 14856.3 17733.8 25633.2 23939.3 20757.9 18484.5 19714 21250
          22309.9 26863.2 25867.4 24272.3 23192.5 23353.4 23982.8 24487 19385.4 15679.7 8166.72 1154.38
          -6044.8 -10351.7 1833.6 18764.7 12361.5 -6489.41 -11817.4 -20206.7 -6228.71 2087.6 19307.7 13324.7
          -9546.67 -55167.8 -77054.9 -10200.8 2189.37 21240.3 17281.7 7060.86 -12849.7 -7659.68 4619.46 10131.1
          23609.4 21185.9 16163.8 10640.7 12093.2 15323 17382 25690.2 24355.8 22039.2 20101.5 20241.9
          21239.6 22024.2 26848 25994.6 24640.5 23574.6 23431.3 23826.8 24204.6 19132.3 15682.7 8628.19
          -786.93 -15944.9 -19060.3 -2628.95 18808.6 14157.8 3248.71 -10343.5 -31792.4 -13176.9 -3015.43 19408.9
          14306.2 -521.897 -30450.6 -61145 -15482.1 -6671.96 21524.4 18195 10653.2 226.765 -3463.59 4424.76
          8670.61 23985.3 22069.9 18441 14632.3 13821.6 15709.3 17223.6 25979.6 24894.1 23060.4 21391.1
          20947.9 21477.5 22030.6 27058.3 26328.9 25163.7 24145 23780.8 23954.1 24208.1 19350.1 16127.9
          9346.25 -406.025 -12088.5 -10381.9 -2307.96 19179.8 15003.2 4611.44 -11334.5 -45083.5 -19657.3 -4859.23
          19729.7 14325.9 -8656.78 -35497.7 -83069.6 -37380.2 -7304.61 21932.5 18791.8 11339.1 2191.63 -4052.95
          2959.3 8536.37 24390.5 22699 19500.5 16099.6 14582.9 15966.7 17407.5 26305.8 25352.3 23732.6
          22164.9 21478.9 21773.2 22217.1 27323.7 26671.6 25614.1 24623.9 24143.4 24182.7 24359.8 19745.8
          16738.9 10328 641.146 -8921.3 -8616.8 -547.672 19709.2 16014.1 6881.51 -11358.2 -38048.7 -29526.3
          -3517.46 20361.8 16009.9 1936.35 -56425.3 -77004.9 -16575.6 -62.6244 22403.8 19610.9 13079.7 2049.22
          -2706.94 5545.82 10364.4 24737.7 23180.1 20202.1 16708.3 15221.5 16665.7 18026 26569.1 25678.7
          24146.7 22591.7 21862.1 22111.8 22518.2 27542.6 26928.3 25918.8 24938.9 24422.7 24417.1 24564.5
          20089 17223.2 11103.9 1935.46 -5075.83 -1762.23 3032.41 20131.4 16750 8583.26 -7643.54 -26910
          -8715.44 1633.91 20856.4 17249.4 7731.66 -14843.3 -60864.8 -7843.7 4255.77 22721 20146.4 14378.6
          5285.28 -407.616 7688.59 12044.4 24936.3 23418.7 20507.4 17072.2 15684.6 17286.1 18650.8 26714
          25833.2 24303.8 22739.2 22061.7 22372.3 22797.9 27666.2 27058.3 26051.9 25069.5 24570.3 24584.2
          24739.2 20254.6 17390.7 11132.7 1304.52 -3284.61 1742.77 5675.14 20285.2 16832.9 7741.95 -19441.2
          -29189.1 -3390.5 4746.99 20976 17304.8 7252.47 -18560.6 -63017 -4753.29 6568.16 22743.5 19963
          13189.6 620.677 -1286.27 8557.9 13059.2 24940.3 23304.7 20001.1 15843.2 15353.5 17521.8 19037.4
          26727.5 25800.7 24155.3 22457.7 21980.8 22464.4 22958.8 27686.6 27060.5 26016 25004.7 24564.7
          24643.1 24829.9 20271.1 17415.6 11309.1 2711.4 -294.153 3763.37 7072.87 20258.3 16723.7 7686.05
          -10960.5 -12972.2 195.295 6384.93 20838.3 16625.5 2423.04 -65771.9 -46158.6 -1944.79 7793.23 22568.2
          19258.6 9073.32 -32375.8 -3750.13 8819.5 13506.4 24820.6 22977.6 18851.1 12354.2 14473 17468.4
          19162.1 26652.6 25660.4 23833.4 21859.1 21725.7 22415.4 22981.3 27630.8 26981.1 25886.3 24828.1
          24460.1 24605.1 24822.8
        </DataArray>
        <DataArray type="Float32" Name="saturation" NumberOfComponents="1" format="ascii">
          0.296953 0.296715 0.296344 0.296012 0.295866 0.295886 0.295945 0.296977 0.296727 0.296333 0.295981 0.295842
          0.295885 0.295961 0.297075 0.29682 0.296414 0.296052 0.295924 0.295987 0.296076 0.297284 0.297053 0.29669
          0.29637 0.296249 0.296293 0.296369 0.297571 0.297381 0.297086 0.296829 0.296722 0.296741 0.296791 0.297848
          0.297697 0.297466 0.297263 0.297169 0.297169 0.297197 0.298017 0.297889 0.297694 0.297522 0.297435 0.297425
          0.297442 0.296324 0.296006 0.295502 0.295056 0.294903 0.294989 0.295106 0.296331 0.295983 0.295418 0.294909
          0.294776 0.294923 0.295081 0.296419 0.29605 0.295437 0.294865 0.29476 0.29497 0.295168 0.296657 0.296328
          0.295794 0.29532 0.295206 0.295351 0.295513 0.297002 0.296739 0.296326 0.295974 0.295871 0.29595 0.296054
          0.297342 0.297142 0.296836 0.296579 0.296485 0.29652 0.296579 0.297551 0.297388 0.297141 0.296932 0.296845
          0.296857 0.296894 0.295192 0.294697 0.293885 0.293156 0.293005 0.293267 0.293525 0.295154 0.294578 0.293583
          0.292621 0.292552 0.293016 0.293395 0.295213 0.294565 0.293374 0.292077 0.292133 0.292867 0.293386 0.29551
          0.294943 0.293966 0.293041 0.292987 0.293426 0.293838 0.295975 0.295537 0.294827 0.294228 0.294168 0.294411
          0.29466 0.29645 0.296137 0.295655 0.295271 0.295198 0.29532 0.295456 0.296744 0.296503 0.296142 0.295855
          0.295775 0.295841 0.295924 0.293635 0.292846 0.291488 0.290194 0.290099 0.290725 0.291245 0.293514 0.292531
          0.290654 0.288504 0.288757 0.290047 0.290901 0.293508 0.292312 0.289719 0.285715 0.286721 0.289293 0.290648
          0.293891 0.292869 0.290931 0.2888 0.289037 0.290175 0.291241 0.294536 0.29376 0.292416 0.291248 0.291421
          0.29203 0.292605 0.295229 0.294713 0.293896 0.293271 0.293294 0.2936 0.293886 0.295664 0.295292 0.294735
          0.294322 0.294279 0.294446 0.294612 0.29181 0.29063 0.288481 0.286223 0.286299 0.287506 0.288409 0.291576
          0.290003 0.286617 0.281471 0.28298 0.286061 0.287737 0.291464 0.289389 0.283767 0.267106 0.273829 0.283738
          0.286995 0.291941 0.290187 0.286421 0.281217 0.282526 0.28471 0.287621 0.292801 0.291422 0.28871 0.286154
          0.28743 0.288714 0.289981 0.293803 0.292959 0.291543 0.290501 0.290856 0.291484 0.292025 0.294436 0.293878
          0.293028 0.292442 0.292503 0.29283 0.293116 0.289951 0.288377 0.285442 0.28218 0.282353 0.284006 0.285284
          0.289617 0.287466 0.282614 0.273926 0.277462 0.281869 0.284325 0.289423 0.286504 0.278177 0.254184 0.265138
          0.277752 0.283053 0.289966 0.287312 0.28099 0.270797 0.274804 0.273361 0.283203 0.291014 0.28865 0.282614
          0.275667 0.282572 0.28469 0.28721 0.292398 0.291107 0.288723 0.287104 0.288292 0.289337 0.290202 0.293265
          0.292493 0.291287 0.290531 0.290769 0.291277 0.29169 0.288277 0.286378 0.282927 0.279319 0.278745 0.280421
          0.282057 0.287898 0.285334 0.27991 0.272267 0.272978 0.278103 0.281097 0.287741 0.284322 0.275083 0.25238
          0.257586 0.273619 0.279931 0.288396 0.28499 0.275989 0.258519 0.268299 0.271542 0.28087 0.289624 0.286176
          0.273273 0.273747 0.279883 0.282774 0.28547 0.291353 0.289708 0.286393 0.285375 0.28669 0.287945 0.288908
          0.292402 0.291491 0.290045 0.289292 0.289571 0.290156 0.290618 0.28692 0.284672 0.280674 0.27687 0.275127
          0.276184 0.278639 0.286521 0.283413 0.277116 0.270811 0.26894 0.274564 0.278067 0.286595 0.282915 0.273614
          0.255429 0.249794 0.270907 0.277587 0.28761 0.28433 0.276109 0.258001 0.268319 0.275709 0.280361 0.289205
          0.286638 0.280716 0.274455 0.279656 0.282811 0.284821 0.290963 0.289561 0.287057 0.285363 0.28627 0.287434
          0.288258 0.292014 0.291161 0.289833 0.288958 0.289088 0.289596 0.290009 0.286025 0.283375 0.278531 0.274548
          0.270902 0.268904 0.274914 0.285568 0.281154 0.27069 0.268252 0.264767 0.270814 0.275052 0.285968 0.281785
          0.269267 0.253604 0.248467 0.268971 0.275107 0.287426 0.284498 0.277872 0.267801 0.270138 0.276458 0.279735
          0.289294 0.287384 0.283711 0.280055 0.28098 0.28313 0.284569 0.291012 0.289901 0.288046 0.28656 0.286666
          0.287426 0.288034 0.292001 0.291269 0.290135 0.289266 0.28915 0.28947 0.289777 0.285838 0.283377 0.278811
          0.273524 0.266487 0.26522 0.272581 0.2856 0.282339 0.27569 0.268907 0.260546 0.267659 0.272387 0.286043
          0.282439 0.273662 0.261004 0.252091 0.26668 0.270603 0.287645 0.285153 0.280062 0.274055 0.272163 0.276348
          0.278836 0.289598 0.28807 0.285332 0.282659 0.282115 0.283395 0.284456 0.291257 0.290345 0.288853 0.287542
          0.287202 0.287609 0.288039 0.292183 0.291554 0.29057 0.289729 0.289432 0.289573 0.28978 0.285999 0.283686
          0.279249 0.273723 0.268133 0.26889 0.272743 0.285873 0.282911 0.276454 0.268465 0.256379 0.264983 0.271475
          0.286282 0.282452 0.269675 0.259319 0.24723 0.258716 0.270304 0.287963 0.285588 0.280497 0.275109 0.27187
          0.275529 0.278755 0.28993 0.288565 0.286111 0.283666 0.282626 0.283573 0.284587 0.291534 0.290727 0.289393
          0.288144 0.28761 0.287838 0.288185 0.292415 0.291849 0.290947 0.290122 0.289727 0.28976 0.289905 0.286294
          0.284113 0.279858 0.274274 0.269553 0.269693 0.273649 0.286266 0.283606 0.277766 0.268454 0.258505 0.261324
          0.272136 0.286756 0.283604 0.27497 0.253278 0.248478 0.266226 0.273902 0.288332 0.286193 0.281623 0.275031
          0.272542 0.276988 0.279881 0.290216 0.288949 0.286636 0.284092 0.28306 0.284062 0.285031 0.29176 0.291002
          0.28973 0.28848 0.287908 0.288103 0.288422 0.292607 0.29207 0.291205 0.290383 0.289956 0.289952 0.290073
          0.286551 0.284456 0.280347 0.274969 0.271369 0.273021 0.27557 0.286583 0.284121 0.278783 0.270145 0.26225
          0.269648 0.274806 0.287132 0.284475 0.27827 0.266948 0.252159 0.270052 0.276252 0.288583 0.286594 0.282488
          0.276838 0.273722 0.278245 0.280949 0.29038 0.28914 0.286867 0.284349 0.283378 0.284501 0.285485 0.291885
          0.291132 0.289859 0.288597 0.288064 0.288307 0.288644 0.292715 0.292183 0.291318 0.290491 0.290078 0.290089
          0.290217 0.286675 0.284575 0.280365 0.274629 0.272252 0.274865 0.277062 0.286699 0.28418 0.278276 0.265069
          0.261442 0.272199 0.276531 0.287223 0.284514 0.277985 0.265419 0.251635 0.271526 0.277582 0.288601 0.286456
          0.281696 0.274263 0.273266 0.278768 0.28161 0.290384 0.289048 0.286485 0.283488 0.28315 0.284669 0.285768
          0.291897 0.291105 0.289737 0.288375 0.288 0.28838 0.288772 0.292733 0.292185 0.291287 0.290437 0.290073
          0.290138 0.290292 0.286688 0.284593 0.280478 0.275393 0.273781 0.275976 0.277879 0.286678 0.284103 0.278243
          0.268631 0.267747 0.274038 0.277474 0.287118 0.284034 0.275235 0.25098 0.256069 0.272928 0.278307 0.288462
          0.285932 0.279082 0.260349 0.27202 0.278927 0.281905 0.290284 0.288787 0.285631 0.281149 0.282551 0.284631
          0.28586 0.291832 0.290986 0.289475 0.287905 0.287802 0.288341 0.28879 0.292684 0.292116 0.291177 0.290291
          0.289987 0.290106 0.290286
        </DataArray>
        <DataArray type="Float32" Name="process rank" NumberOfComponents="1" format="ascii">
          0 0 0 0 0 0 0 0 0 0 0 0
          0 0 0 0 0 0 0 0 0 0 0 0
          0 0 0 0 0 0 0 0 0 0 0 0
          0 0 0 0 0 0 0 0 0 0 0 0
          0 0 0 0 0 0 0 0 0 0 0 0
          0 0 0 0 0 0 0 0 0 0 0 0
          0 0 0 0 0 0 0 0 0 0 0 0
          0 0 0 0 0 0 0 0 0 0 0 0
          0 0 0 0 0 0 0 0 0 0 0 0
          0 0 0 0 0 0 0 0 0 0 0 0
          0 0 0 0 0 0 0 0 0 0 0 0
          0 0 0 0 0 0 0 0 0 0 0 0
          0 0 0 0 0 0 0 0 0 0 0 0
          0 0 0 0 0 0 0 0 0 0 0 0
          0 0 0 0 0 0 0 0 0 0 0 0
          0 0 0 0 0 0 0 0 0 0 0 0
          0 0 0 0 0 0 0 0 0 0 0 0
          0 0 0 0 0 0 0 0 0 0 0 0
          0 0 0 0 0 0 0 0 0 0 0 0
          0 0 0 0 0 0 0 0 0 0 0 0
          0 0 0 0 0 0 0 0 0 0 0 0
          0 0 0 0 0 0 0 0 0 0 0 0
          0 0 0 0 0 0 0 0 0 0 0 0
          0 0 0 0 0 0 0 0 0 0 0 0
          0 0 0 0 0 0 0 0 0 0 0 0
          0 0 0 0 0 0 0 0 0 0 0 0
          0 0 0 0 0 0 0 0 0 0 0 0
          0 0 0 0 0 0 0 0 0 0 0 0
          0 0 0 0 0 0 0 0 0 0 0 0
          0 0 0 0 0 0 0 0 0 0 0 0
          0 0 0 0 0 0 0 0 0 0 0 0
          0 0 0 0 0 0 0 0 0 0 0 0
          0 0 0 0 0 0 0 0 0 0 0 0
          0 0 0 0 0 0 0 0 0 0 0 0
          0 0 0 0 0 0 0 0 0 0 0 0
          0 0 0 0 0 0 0 0 0 0 0 0
          0 0 0 0 0 0 0 0 0 0 0 0
          0 0 0 0 0 0 0 0 0 0 0 0
          0 0 0 0 0 0 0 0 0 0 0 0
          0 0 0 0 0 0 0 0 0 0 0 0
          0 0 0 0 0 0 0 0 0 0 0 0
          0 0 0 0 0 0 0 0 0 0 0 0
          0 0 0 0 0 0 0 0 0 0 0 0
          0 0 0 0 0 0 0 0 0 0 0 0
          0 0 0 0 0 0 0 0 0 0 0 0
          0 0 0 0 0 0 0 0 0 0 0 0
          0 0 0 0 0 0 0 0 0 0 0 0
          0 0 0 0 0 0 0 0 0 0 0 0
          0 0 0 0 0 0 0 0 0 0 0 0
          0 0 0 0 0 0 0 0 0 0 0 0
          0 0 0 0 0 0 0 0 0 0 0 0
          0 0 0 0 0 0 0 0 0 0 0 0
          0 0 0 0 0 0 0 0 0 0 0 0
          0 0 0 0 0 0 0 0 0 0 0 0
          0 0 0 0 0 0 0 0 0 0 0 0
          0 0 0 0 0 0 0 0 0 0 0 0
          0 0 0 0 0 0 0 0 0 0 0 0
          0 0 0 0 0 0 0 0 0 0 0 0
          0 0 0 0 0 0 0 0 0 0 0 0
          0 0 0 0 0 0 0 0 0 0 0 0
          0 0 0 0 0 0 0 0 0 0 0 0
          0 0 0
        </DataArray>
      </CellData>
      <Points>
        <DataArray type="Float32" Name="Coordinates" NumberOfComponents="3" format="ascii">
          -0.04 -0.04 -0.15 -0.0285714 -0.04 -0.15 -0.04 -0.0285714 -0.15 -0.0285714 -0.0285714 -0.15
          -0.04 -0.04 -0.14 -0.0285714 -0.04 -0.14 -0.04 -0.0285714 -0.14 -0.0285714 -0.0285714 -0.14
          -0.0171429 -0.04 -0.15 -0.0171429 -0.0285714 -0.15 -0.0171429 -0.04 -0.14 -0.0171429 -0.0285714 -0.14
          -0.00571429 -0.04 -0.15 -0.00571429 -0.0285714 -0.15 -0.00571429 -0.04 -0.14 -0.00571429 -0.0285714 -0.14
          0.00571429 -0.04 -0.15 0.00571429 -0.0285714 -0.15 0.00571429 -0.04 -0.14 0.00571429 -0.0285714 -0.14
          0.0171429 -0.04 -0.15 0.0171429 -0.0285714 -0.15 0.0171429 -0.04 -0.14 0.0171429 -0.0285714 -0.14
          0.0285714 -0.04 -0.15 0.0285714 -0.0285714 -0.15 0.0285714 -0.04 -0.14 0.0285714 -0.0285714 -0.14
          0.04 -0.04 -0.15 0.04 -0.0285714 -0.15 0.04 -0.04 -0.14 0.04 -0.0285714 -0.14
          -0.04 -0.0171429 -0.15 -0.0285714 -0.0171429 -0.15 -0.04 -0.0171429 -0.14 -0.0285714 -0.0171429 -0.14
          -0.0171429 -0.0171429 -0.15 -0.0171429 -0.0171429 -0.14 -0.00571429 -0.0171429 -0.15 -0.00571429 -0.0171429 -0.14
          0.00571429 -0.0171429 -0.15 0.00571429 -0.0171429 -0.14 0.0171429 -0.0171429 -0.15 0.0171429 -0.0171429 -0.14
          0.0285714 -0.0171429 -0.15 0.0285714 -0.0171429 -0.14 0.04 -0.0171429 -0.15 0.04 -0.0171429 -0.14
          -0.04 -0.00571429 -0.15 -0.0285714 -0.00571429 -0.15 -0.04 -0.00571429 -0.14 -0.0285714 -0.00571429 -0.14
          -0.0171429 -0.00571429 -0.15 -0.0171429 -0.00571429 -0.14 -0.00571429 -0.00571429 -0.15 -0.00571429 -0.00571429 -0.14
          0.00571429 -0.00571429 -0.15 0.00571429 -0.00571429 -0.14 0.0171429 -0.00571429 -0.15 0.0171429 -0.00571429 -0.14
          0.0285714 -0.00571429 -0.15 0.0285714 -0.00571429 -0.14 0.04 -0.00571429 -0.15 0.04 -0.00571429 -0.14
          -0.04 0.00571429 -0.15 -0.0285714 0.00571429 -0.15 -0.04 0.00571429 -0.14 -0.0285714 0.00571429 -0.14
          -0.0171429 0.00571429 -0.15 -0.0171429 0.00571429 -0.14 -0.00571429 0.00571429 -0.15 -0.00571429 0.00571429 -0.14
          0.00571429 0.00571429 -0.15 0.00571429 0.00571429 -0.14 0.0171429 0.00571429 -0.15 0.0171429 0.00571429 -0.14
          0.0285714 0.00571429 -0.15 0.0285714 0.00571429 -0.14 0.04 0.00571429 -0.15 0.04 0.00571429 -0.14
          -0.04 0.0171429 -0.15 -0.0285714 0.0171429 -0.15 -0.04 0.0171429 -0.14 -0.0285714 0.0171429 -0.14
          -0.0171429 0.0171429 -0.15 -0.0171429 0.0171429 -0.14 -0.00571429 0.0171429 -0.15 -0.00571429 0.0171429 -0.14
          0.00571429 0.0171429 -0.15 0.00571429 0.0171429 -0.14 0.0171429 0.0171429 -0.15 0.0171429 0.0171429 -0.14
          0.0285714 0.0171429 -0.15 0.0285714 0.0171429 -0.14 0.04 0.0171429 -0.15 0.04 0.0171429 -0.14
          -0.04 0.0285714 -0.15 -0.0285714 0.0285714 -0.15 -0.04 0.0285714 -0.14 -0.0285714 0.0285714 -0.14
          -0.0171429 0.0285714 -0.15 -0.0171429 0.0285714 -0.14 -0.00571429 0.0285714 -0.15 -0.00571429 0.0285714 -0.14
          0.00571429 0.0285714 -0.15 0.00571429 0.0285714 -0.14 0.0171429 0.0285714 -0.15 0.0171429 0.0285714 -0.14
          0.0285714 0.0285714 -0.15 0.0285714 0.0285714 -0.14 0.04 0.0285714 -0.15 0.04 0.0285714 -0.14
          -0.04 0.04 -0.15 -0.0285714 0.04 -0.15 -0.04 0.04 -0.14 -0.0285714 0.04 -0.14
          -0.0171429 0.04 -0.15 -0.0171429 0.04 -0.14 -0.00571429 0.04 -0.15 -0.00571429 0.04 -0.14
          0.00571429 0.04 -0.15 0.00571429 0.04 -0.14 0.0171429 0.04 -0.15 0.0171429 0.04 -0.14
          0.0285714 0.04 -0.15 0.0285714 0.04 -0.14 0.04 0.04 -0.15 0.04 0.04 -0.14
          -0.04 -0.04 -0.13 -0.0285714 -0.04 -0.13 -0.04 -0.0285714 -0.13 -0.0285714 -0.0285714 -0.13
          -0.0171429 -0.04 -0.13 -0.0171429 -0.0285714 -0.13 -0.00571429 -0.04 -0.13 -0.00571429 -0.0285714 -0.13
          0.00571429 -0.04 -0.13 0.00571429 -0.0285714 -0.13 0.0171429 -0.04 -0.13 0.0171429 -0.0285714 -0.13
          0.0285714 -0.04 -0.13 0.0285714 -0.0285714 -0.13 0.04 -0.04 -0.13 0.04 -0.0285714 -0.13
          -0.04 -0.0171429 -0.13 -0.0285714 -0.0171429 -0.13 -0.0171429 -0.0171429 -0.13 -0.00571429 -0.0171429 -0.13
          0.00571429 -0.0171429 -0.13 0.0171429 -0.0171429 -0.13 0.0285714 -0.0171429 -0.13 0.04 -0.0171429 -0.13
          -0.04 -0.00571429 -0.13 -0.0285714 -0.00571429 -0.13 -0.0171429 -0.00571429 -0.13 -0.00571429 -0.00571429 -0.13
          0.00571429 -0.00571429 -0.13 0.0171429 -0.00571429 -0.13 0.0285714 -0.00571429 -0.13 0.04 -0.00571429 -0.13
          -0.04 0.00571429 -0.13 -0.0285714 0.00571429 -0.13 -0.0171429 0.00571429 -0.13 -0.00571429 0.00571429 -0.13
          0.00571429 0.00571429 -0.13 0.0171429 0.00571429 -0.13 0.0285714 0.00571429 -0.13 0.04 0.00571429 -0.13
          -0.04 0.0171429 -0.13 -0.0285714 0.0171429 -0.13 -0.0171429 0.0171429 -0.13 -0.00571429 0.0171429 -0.13
          0.00571429 0.0171429 -0.13 0.0171429 0.0171429 -0.13 0.0285714 0.0171429 -0.13 0.04 0.0171429 -0.13
          -0.04 0.0285714 -0.13 -0.0285714 0.0285714 -0.13 -0.0171429 0.0285714 -0.13 -0.00571429 0.0285714 -0.13
          0.00571429 0.0285714 -0.13 0.0171429 0.0285714 -0.13 0.0285714 0.0285714 -0.13 0.04 0.0285714 -0.13
          -0.04 0.04 -0.13 -0.0285714 0.04 -0.13 -0.0171429 0.04 -0.13 -0.00571429 0.04 -0.13
          0.00571429 0.04 -0.13 0.0171429 0.04 -0.13 0.0285714 0.04 -0.13 0.04 0.04 -0.13
          -0.04 -0.04 -0.12 -0.0285714 -0.04 -0.12 -0.04 -0.0285714 -0.12 -0.0285714 -0.0285714 -0.12
          -0.0171429 -0.04 -0.12 -0.0171429 -0.0285714 -0.12 -0.00571429 -0.04 -0.12 -0.00571429 -0.0285714 -0.12
          0.00571429 -0.04 -0.12 0.00571429 -0.0285714 -0.12 0.0171429 -0.04 -0.12 0.0171429 -0.0285714 -0.12
          0.0285714 -0.04 -0.12 0.0285714 -0.0285714 -0.12 0.04 -0.04 -0.12 0.04 -0.0285714 -0.12
          -0.04 -0.0171429 -0.12 -0.0285714 -0.0171429 -0.12 -0.0171429 -0.0171429 -0.12 -0.00571429 -0.0171429 -0.12
          0.00571429 -0.0171429 -0.12 0.0171429 -0.0171429 -0.12 0.0285714 -0.0171429 -0.12 0.04 -0.0171429 -0.12
          -0.04 -0.00571429 -0.12 -0.0285714 -0.00571429 -0.12 -0.0171429 -0.00571429 -0.12 -0.00571429 -0.00571429 -0.12
          0.00571429 -0.00571429 -0.12 0.0171429 -0.00571429 -0.12 0.0285714 -0.00571429 -0.12 0.04 -0.00571429 -0.12
          -0.04 0.00571429 -0.12 -0.0285714 0.00571429 -0.12 -0.0171429 0.00571429 -0.12 -0.00571429 0.00571429 -0.12
          0.00571429 0.00571429 -0.12 0.0171429 0.00571429 -0.12 0.0285714 0.00571429 -0.12 0.04 0.00571429 -0.12
          -0.04 0.0171429 -0.12 -0.0285714 0.0171429 -0.12 -0.0171429 0.0171429 -0.12 -0.00571429 0.0171429 -0.12
          0.00571429 0.0171429 -0.12 0.0171429 0.0171429 -0.12 0.0285714 0.0171429 -0.12 0.04 0.0171429 -0.12
          -0.04 0.0285714 -0.12 -0.0285714 0.0285714 -0.12 -0.0171429 0.0285714 -0.12 -0.00571429 0.0285714 -0.12
          0.00571429 0.0285714 -0.12 0.0171429 0.0285714 -0.12 0.0285714 0.0285714 -0.12 0.04 0.0285714 -0.12
          -0.04 0.04 -0.12 -0.0285714 0.04 -0.12 -0.0171429 0.04 -0.12 -0.00571429 0.04 -0.12
          0.00571429 0.04 -0.12 0.0171429 0.04 -0.12 0.0285714 0.04 -0.12 0.04 0.04 -0.12
          -0.04 -0.04 -0.11 -0.0285714 -0.04 -0.11 -0.04 -0.0285714 -0.11 -0.0285714 -0.0285714 -0.11
          -0.0171429 -0.04 -0.11 -0.0171429 -0.0285714 -0.11 -0.00571429 -0.04 -0.11 -0.00571429 -0.0285714 -0.11
          0.00571429 -0.04 -0.11 0.00571429 -0.0285714 -0.11 0.0171429 -0.04 -0.11 0.0171429 -0.0285714 -0.11
          0.0285714 -0.04 -0.11 0.0285714 -0.0285714 -0.11 0.04 -0.04 -0.11 0.04 -0.0285714 -0.11
          -0.04 -0.0171429 -0.11 -0.0285714 -0.0171429 -0.11 -0.0171429 -0.0171429 -0.11 -0.00571429 -0.0171429 -0.11
          0.00571429 -0.0171429 -0.11 0.0171429 -0.0171429 -0.11 0.0285714 -0.0171429 -0.11 0.04 -0.0171429 -0.11
          -0.04 -0.00571429 -0.11 -0.0285714 -0.00571429 -0.11 -0.0171429 -0.00571429 -0.11 -0.00571429 -0.00571429 -0.11
          0.00571429 -0.00571429 -0.11 0.0171429 -0.00571429 -0.11 0.0285714 -0.00571429 -0.11 0.04 -0.00571429 -0.11
          -0.04 0.00571429 -0.11 -0.0285714 0.00571429 -0.11 -0.0171429 0.00571429 -0.11 -0.00571429 0.00571429 -0.11
          0.00571429 0.00571429 -0.11 0.0171429 0.00571429 -0.11 0.0285714 0.00571429 -0.11 0.04 0.00571429 -0.11
          -0.04 0.0171429 -0.11 -0.0285714 0.0171429 -0.11 -0.0171429 0.0171429 -0.11 -0.00571429 0.0171429 -0.11
          0.00571429 0.0171429 -0.11 0.0171429 0.0171429 -0.11 0.0285714 0.0171429 -0.11 0.04 0.0171429 -0.11
          -0.04 0.0285714 -0.11 -0.0285714 0.0285714 -0.11 -0.0171429 0.0285714 -0.11 -0.00571429 0.0285714 -0.11
          0.00571429 0.0285714 -0.11 0.0171429 0.0285714 -0.11 0.0285714 0.0285714 -0.11 0.04 0.0285714 -0.11
          -0.04 0.04 -0.11 -0.0285714 0.04 -0.11 -0.0171429 0.04 -0.11 -0.00571429 0.04 -0.11
          0.00571429 0.04 -0.11 0.0171429 0.04 -0.11 0.0285714 0.04 -0.11 0.04 0.04 -0.11
          -0.04 -0.04 -0.1 -0.0285714 -0.04 -0.1 -0.04 -0.0285714 -0.1 -0.0285714 -0.0285714 -0.1
          -0.0171429 -0.04 -0.1 -0.0171429 -0.0285714 -0.1 -0.00571429 -0.04 -0.1 -0.00571429 -0.0285714 -0.1
          0.00571429 -0.04 -0.1 0.00571429 -0.0285714 -0.1 0.0171429 -0.04 -0.1 0.0171429 -0.0285714 -0.1
          0.0285714 -0.04 -0.1 0.0285714 -0.0285714 -0.1 0.04 -0.04 -0.1 0.04 -0.0285714 -0.1
          -0.04 -0.0171429 -0.1 -0.0285714 -0.0171429 -0.1 -0.0171429 -0.0171429 -0.1 -0.00571429 -0.0171429 -0.1
          0.00571429 -0.0171429 -0.1 0.0171429 -0.0171429 -0.1 0.0285714 -0.0171429 -0.1 0.04 -0.0171429 -0.1
          -0.04 -0.00571429 -0.1 -0.0285714 -0.00571429 -0.1 -0.0171429 -0.00571429 -0.1 -0.00571429 -0.00571429 -0.1
          0.00571429 -0.00571429 -0.1 0.0171429 -0.00571429 -0.1 0.0285714 -0.00571429 -0.1 0.04 -0.00571429 -0.1
          -0.04 0.00571429 -0.1 -0.0285714 0.00571429 -0.1 -0.0171429 0.00571429 -0.1 -0.00571429 0.00571429 -0.1
          0.00571429 0.00571429 -0.1 0.0171429 0.00571429 -0.1 0.0285714 0.00571429 -0.1 0.04 0.00571429 -0.1
          -0.04 0.0171429 -0.1 -0.0285714 0.0171429 -0.1 -0.0171429 0.0171429 -0.1 -0.00571429 0.0171429 -0.1
          0.00571429 0.0171429 -0.1 0.0171429 0.0171429 -0.1 0.0285714 0.0171429 -0.1 0.04 0.0171429 -0.1
          -0.04 0.0285714 -0.1 -0.0285714 0.0285714 -0.1 -0.0171429 0.0285714 -0.1 -0.00571429 0.0285714 -0.1
          0.00571429 0.0285714 -0.1 0.0171429 0.0285714 -0.1 0.0285714 0.0285714 -0.1 0.04 0.0285714 -0.1
          -0.04 0.04 -0.1 -0.0285714 0.04 -0.1 -0.0171429 0.04 -0.1 -0.00571429 0.04 -0.1
          0.00571429 0.04 -0.1 0.0171429 0.04 -0.1 0.0285714 0.04 -0.1 0.04 0.04 -0.1
          -0.04 -0.04 -0.09 -0.0285714 -0.04 -0.09 -0.04 -0.0285714 -0.09 -0.0285714 -0.0285714 -0.09
          -0.0171429 -0.04 -0.09 -0.0171429 -0.0285714 -0.09 -0.00571429 -0.04 -0.09 -0.00571429 -0.0285714 -0.09
          0.00571429 -0.04 -0.09 0.00571429 -0.0285714 -0.09 0.0171429 -0.04 -0.09 0.0171429 -0.0285714 -0.09
          0.0285714 -0.04 -0.09 0.0285714 -0.0285714 -0.09 0.04 -0.04 -0.09 0.04 -0.0285714 -0.09
          -0.04 -0.0171429 -0.09 -0.0285714 -0.0171429 -0.09 -0.0171429 -0.0171429 -0.09 -0.00571429 -0.0171429 -0.09
          0.00571429 -0.0171429 -0.09 0.0171429 -0.0171429 -0.09 0.0285714 -0.0171429 -0.09 0.04 -0.0171429 -0.09
          -0.04 -0.00571429 -0.09 -0.0285714 -0.00571429 -0.09 -0.0171429 -0.00571429 -0.09 -0.00571429 -0.00571429 -0.09
          0.00571429 -0.00571429 -0.09 0.0171429 -0.00571429 -0.09 0.0285714 -0.00571429 -0.09 0.04 -0.00571429 -0.09
          -0.04 0.00571429 -0.09 -0.0285714 0.00571429 -0.09 -0.0171429 0.00571429 -0.09 -0.00571429 0.00571429 -0.09
          0.00571429 0.00571429 -0.09 0.0171429 0.00571429 -0.09 0.0285714 0.00571429 -0.09 0.04 0.00571429 -0.09
          -0.04 0.0171429 -0.09 -0.0285714 0.0171429 -0.09 -0.0171429 0.0171429 -0.09 -0.00571429 0.0171429 -0.09
          0.00571429 0.0171429 -0.09 0.0171429 0.0171429 -0.09 0.0285714 0.0171429 -0.09 0.04 0.0171429 -0.09
          -0.04 0.0285714 -0.09 -0.0285714 0.0285714 -0.09 -0.0171429 0.0285714 -0.09 -0.00571429 0.0285714 -0.09
          0.00571429 0.0285714 -0.09 0.0171429 0.0285714 -0.09 0.0285714 0.0285714 -0.09 0.04 0.0285714 -0.09
          -0.04 0.04 -0.09 -0.0285714 0.04 -0.09 -0.0171429 0.04 -0.09 -0.00571429 0.04 -0.09
          0.00571429 0.04 -0.09 0.0171429 0.04 -0.09 0.0285714 0.04 -0.09 0.04 0.04 -0.09
          -0.04 -0.04 -0.08 -0.0285714 -0.04 -0.08 -0.04 -0.0285714 -0.08 -0.0285714 -0.0285714 -0.08
          -0.0171429 -0.04 -0.08 -0.0171429 -0.0285714 -0.08 -0.00571429 -0.04 -0.08 -0.00571429 -0.0285714 -0.08
          0.00571429 -0.04 -0.08 0.00571429 -0.0285714 -0.08 0.0171429 -0.04 -0.08 0.0171429 -0.0285714 -0.08
          0.0285714 -0.04 -0.08 0.0285714 -0.0285714 -0.08 0.04 -0.04 -0.08 0.04 -0.0285714 -0.08
          -0.04 -0.0171429 -0.08 -0.0285714 -0.0171429 -0.08 -0.0171429 -0.0171429 -0.08 -0.00571429 -0.0171429 -0.08
          0.00571429 -0.0171429 -0.08 0.0171429 -0.0171429 -0.08 0.0285714 -0.0171429 -0.08 0.04 -0.0171429 -0.08
          -0.04 -0.00571429 -0.08 -0.0285714 -0.00571429 -0.08 -0.0171429 -0.00571429 -0.08 -0.00571429 -0.00571429 -0.08
          0.00571429 -0.00571429 -0.08 0.0171429 -0.00571429 -0.08 0.0285714 -0.00571429 -0.08 0.04 -0.00571429 -0.08
          -0.04 0.00571429 -0.08 -0.0285714 0.00571429 -0.08 -0.0171429 0.00571429 -0.08 -0.00571429 0.00571429 -0.08
          0.00571429 0.00571429 -0.08 0.0171429 0.00571429 -0.08 0.0285714 0.00571429 -0.08 0.04 0.00571429 -0.08
          -0.04 0.0171429 -0.08 -0.0285714 0.0171429 -0.08 -0.0171429 0.0171429 -0.08 -0.00571429 0.0171429 -0.08
          0.00571429 0.0171429 -0.08 0.0171429 0.0171429 -0.08 0.0285714 0.0171429 -0.08 0.04 0.0171429 -0.08