<?xml version="1.0"?>
<VTKFile type="UnstructuredGrid" version="0.1" byte_order="LittleEndian">
  <UnstructuredGrid>
    <Piece NumberOfCells="735" NumberOfPoints="1024">
      <CellData Scalars="p (Pa)">
        <DataArray type="Float32" Name="p (Pa)" NumberOfComponents="1" format="ascii">
          32225.7 31981.1 31595.8 31249.2 31095.7 31116.4 31179.3 32250.9 31993.5 31584.5 31216.4 31070.5
          31115.5 31196 32350.9 32089 31669.4 31290.5 31156.3 31222.8 31317.4 32564.8 32328.8 31955.7
          31623.8 31497.8 31544.5 31623.4 32856.2 32663.3 32363.4 32099.9 31989 32008.9 32060.4 33135.4
          32983.4 32749.9 32544.6 32448.1 32448.2 32477.2 33305.2 33176.9 32980.9 32807.5 32719.3 32709.4
          32726.7 31577.3 31244.6 30711.4 30234 30069.5 30162.7 30289.1 31583.9 31219.8 30622 30075.3
          29932.3 30092.1 30262.9 31675.8 31290.8 30642.3 30028.2 29914.8 30143.2 30355.9 31923.3 31581.1
          31021.8 30518.2 30396.6 30551.9 30724.4 32278.4 32007.4 31579.8 31211.8 31103.1 31186.7 31295.9
          32625.3 32421.4 32108.1 31842.9 31746.3 31781.8 31843.3 32837.4 32671.8 32420.7 32207.5 32117.7
          32130 32168.1 30384.1 29850 28960.5 28145.9 27976.4 28272.4 28561.4 30342.9 29721.1 28625
          27537.9 27459.2 27989.5 28416 30406.4 29706.9 28390.9 26910.5 26976.9 27820.8 28407.2 30724
          30116.3 29050.6 28016.8 27956.6 28452.2 28911 31215.2 30752.5 29992.7 29340.7 29274.6 29541.7
          29812.1 31710.5 31384.8 30878.5 30469.7 30391.5 30522.6 30667.2 32015.4 31766.2 31390.2 31089.8
          31005.7 31074.6 31162.2 28688.4 27801.9 26232.8 24686.2 24571.3 25328.9 25947.9 28554.2 27442.4
          25241.4 22584 22905.8 24509.7 25540.5 28546.8 27191.5 24103.8 18900 20261 23580.1 25239
          28972.3 27828.5 25575.4 22963.3 23261.8 24669.5 25946.7 29680.3 28828.6 27313.6 25954.6 26158
          26869.6 27530.6 30427.1 29872.1 28979.2 28283.7 28309.8 28651.5 28968.8 30889.2 30495 29896.4
          29447.4 29400.9 29583.5 29763.5 26617.8 25222.7 22570.1 19617.2 19719.6 21319.2 22481.3 26344
          24464.2 20145.5 12773.1 15045.5 19401.3 21620.2 26212.8 23709.9 16192.1 -14799 -381.918 16158
          20653.7 26769.7 24690 19889.3 12399.5 14385.8 17552.6 21476.7 27756.5 26165.3 22866.6 19538.5
          21226.9 22873.4 24442.6 28879.5 27935.6 26307.8 25071.8 25496.9 26238.4 26868.7 29573.9 28962.3
          28014.2 27348.4 27418 27790.3 28113.2 24410.9 22450.9 18571.9 13882.3 14143.8 16560.2 18353.3
          24001.5 21281.2 14537.6 -114.67 6309.56 13420.6 17015.5 23762.5 20014.9 7542.38 -53075.7 -19352.1
          6821.5 15189.7 24428.6 21080.6 12086.6 -6309.36 1591.36 -1126.32 15414.5 25687.2 22797.5 14548.9
          3190.64 14488.1 17540.9 20949.5 27300.2 25797.3 22889.2 20810.8 22345.5 23656.1 24715.5 28281.9
          27408.7 26009.9 25111.1 25396.5 25998.7 26482.6 22334.6 19856.3 15016 9434.21 8487.64 11193
          13711.3 21850.5 18443.1 10401.5 -3270.05 -1883.05 7424.63 12252.4 21646.9 17033.4 2152.72 -59744.1
          -41076.3 -626.643 10427 22482.1 17964.9 3775.2 -38003 -11724.8 -4724.52 11913 24012.8 19581.5
          -1302.76 -372.71 10359.1 14796.6 18624.3 26089.6 24114.9 19870.8 18494.2 20269.3 21906.4 23126.2
          27306.3 26251.7 24526.6 23603.6 23948.5 24662.6 25218.8 20587.4 17536 11611.9 5317.32 2180.43
          4097.69 8316.17 20061.1 15753.7 5769.55 -6251.54 -10295.1 1159.34 7368.8 20154.8 15016.5 -613.013
          -48412.4 -70869.3 -6036.56 6566.26 21481.8 17047.3 3997.21 -39660.4 -11656.2 3282.84 11120.7 23499.8
          20204.1 11676.3 983.033 10002.8 14855 17731.4 25632.9 23938.3 20755.5 18483 19712.8 21248.7
          22308.4 26862.8 25866.6 24271 23191.3 23352.4 23981.8 24485.8 19403.9 15703.3 8168.29 1114.21
          -6163.06 -10426.1 1792.54 18790.1 12435.7 -6475.8 -11850 -20249 -6261.86 2059.81 19322.4 13344.8
          -9559.57 -55377.9 -76875.9 -10187.9 2177.23 21248.1 17288.8 7055.16 -12944 -7641.85 4625.39 10128.9
          23613.6 21189.5 16164.6 10636 12097.7 15325.6 17382.3 25692.7 24358.1 22040.9 20102.8 20244.1
          21241.1 22024.9 26849.9 25996.4 24642 23576.1 23432.8 23827.9 24205.3 19153.6 15705.4 8634.95
          -846.343 -16367.5 -19208.8 -2686.41 18832.7 14192.6 3274.7 -10325.5 -31891.1 -13236.1 -3055.8 19427.4
          14330.7 -479.382 -30195.6 -60905 -15469.4 -6701.31 21536.7 18209.3 10672.1 264.303 -3417.1 4436.86
          8669.18 23993.1 22078.4 18450.9 14644.7 13834.9 15716 17226.2 25985 24899.7 23066.4 21397.4
          20953.9 21481.6 22033.2 27062.5 26333.2 25168.1 24149.4 23784.8 23957.2 24210.5 19374.1 16153.8
          9369.25 -406.79 -12194.5 -10453.1 -2350.81 19204.8 15034.2 4653.47 -11255.2 -45116.6 -19740 -4903.06
          19751.6 14355.8 -8572.5 -34988 -82586.2 -37350.4 -7327.79 21948.7 18812.2 11374.3 2278.67 -3972.38
          2977.39 8537.46 24401.6 22711.8 19517.2 16123.5 14603.5 15976.3 17411.9 26313.6 25360.6 23742
          22175.3 21487.9 21779.1 22221.2 27329.9 26678.1 25620.9 24630.8 24149.4 24187.3 24363.4 19773.7
          16771.4 10368.7 686.15 -8912.82 -8623.37 -567.191 19737.5 16050.3 6941.22 -11238.8 -38013.4 -29772.8
          -3562.98 20387.6 16047 2032.76 -55830.5 -76897.2 -16587 -74.9704 22423.4 19636.2 13123.3 2143.1
          -2655.12 5558.72 10367.4 24751.3 23195.9 20222.6 16735.1 15240.7 16675.4 18031.4 26578.8 25689.1
          24158.4 22604 21872 22118.6 22523.2 27550.5 26936.4 25927.3 24947.2 24429.8 24422.6 24569
          20121.4 17262.8 11159.8 2014.18 -5007.04 -1738.8 3038.4 20163.7 16792.1 8653.86 -7502.87 -26740.1
          -8715.53 1630.83 20885.5 17288.6 7803.56 -14682.3 -60650.1 -7831.34 4257.21 22743.1 20173.8 14418.4
          5342.01 -371.919 7699.76 12049.8 24951.8 23436.2 20528.3 17095 15700.3 17295.1 18656.8 26725.1
          25844.9 24316.4 22751.5 22071.4 22379.2 22803.4 27675.2 27067.5 26061.3 25078.5 24577.9 24590.1
          24744.2 20291.1 17437.1 11204.3 1423.89 -3171.9 1791.76 5699.48 20321.5 16882.6 7839.34 -19091.9
          -28832.5 -3336.03 4766.96 21008.4 17349.8 7337.44 -18396.5 -63459.4 -4773.85 6575.02 22767.7 19993
          13231.8 667.357 -1303.83 8561.53 13066.1 24957.1 23323.4 20022.7 15863.9 15363.6 17529.6 19044
          26739.5 25813.3 24168.5 22469.9 21990 22471.3 22964.5 27696.4 27070.4 26026 25013.9 24572.3
          24649.2 24835.1 20310 17465.8 11386.8 2830.99 -186.856 3820.44 7105.73 20297.2 16778.4 7792.84
          -10710.2 -12776.5 261.483 6415.75 20873.8 16680.4 2576.03 -64900.5 -45745.5 -1888.43 7814.86 22594.2
          19292.2 9128.38 -32281.3 -3699.22 8839.78 13518.6 24838.2 22997.5 18874.7 12378.4 14489.8 17479
          19170.1 26665.1 25673.5 23847 21871.8 21735.7 22422.9 22987.4 27641 26991.4 25896.5 24837.6
          24468 24611.4 24828.3
        </DataArray>
        <DataArray type="Float32" Name="saturation" NumberOfComponents="1" format="ascii">
          0.296944 0.296706 0.296334 0.296001 0.295855 0.295875 0.295935 0.296969 0.296718 0.296323 0.29597 0.295831
          0.295874 0.295951 0.297067 0.296811 0.296405 0.296041 0.295913 0.295976 0.296066 0.297277 0.297045 0.296681
          0.296361 0.296239 0.296284 0.29636 0.297565 0.297374 0.297079 0.296822 0.296714 0.296733 0.296783 0.297843
          0.297691 0.29746 0.297257 0.297162 0.297162 0.297191 0.298013 0.297884 0.297689 0.297517 0.29743 0.29742
          0.297437 0.296316 0.295997 0.295491 0.295043 0.29489 0.294977 0.295094 0.296322 0.295973 0.295407 0.294895
          0.294763 0.294911 0.29507 0.296411 0.296041 0.295426 0.294851 0.294746 0.294958 0.295157 0.29665 0.296319
          0.295785 0.295309 0.295195 0.295341 0.295503 0.296996 0.296732 0.296318 0.295966 0.295862 0.295942 0.296046
          0.297337 0.297136 0.29683 0.296572 0.296479 0.296513 0.296573 0.297546 0.297383 0.297135 0.296927 0.296839
          0.296851 0.296888 0.295183 0.294686 0.293872 0.29314 0.292989 0.293253 0.293512 0.295145 0.294567 0.293569
          0.292602 0.292533 0.293001 0.293381 0.295204 0.294554 0.293359 0.292055 0.292113 0.292852 0.293373 0.295503
          0.294933 0.293954 0.293025 0.292972 0.293414 0.293827 0.295969 0.29553 0.294819 0.294218 0.294158 0.294402
          0.294651 0.296444 0.296131 0.295649 0.295263 0.29519 0.295313 0.295449 0.296739 0.296498 0.296136 0.295849
          0.295769 0.295835 0.295918 0.293626 0.292835 0.291472 0.290173 0.290078 0.290708 0.29123 0.293505 0.292519
          0.290635 0.288474 0.28873 0.290028 0.290885 0.293499 0.292299 0.289695 0.285667 0.28668 0.28927 0.290633
          0.293882 0.292858 0.290915 0.288775 0.289014 0.290159 0.291229 0.29453 0.293752 0.292406 0.291235 0.291408
          0.29202 0.292596 0.295224 0.294707 0.293889 0.293263 0.293286 0.293593 0.293879 0.295659 0.295287 0.294729
          0.294316 0.294273 0.294441 0.294606 0.291802 0.290619 0.288463 0.286198 0.286274 0.287487 0.288393 0.291567
          0.28999 0.286593 0.281422 0.28294 0.286037 0.28772 0.291455 0.289375 0.28373 0.266967 0.273735 0.283706
          0.286978 0.291933 0.290176 0.286401 0.281179 0.282493 0.284691 0.287609 0.292795 0.291415 0.288698 0.286139
          0.287416 0.288704 0.289972 0.293798 0.292953 0.291536 0.290493 0.290849 0.291477 0.292019 0.294432 0.293873
          0.293023 0.292436 0.292497 0.292825 0.293111 0.289946 0.288369 0.285427 0.282155 0.28233 0.283988 0.285268
          0.289612 0.287458 0.282595 0.273875 0.27743 0.281848 0.284309 0.289418 0.286495 0.278157 0.254155 0.265104
          0.27773 0.283038 0.289961 0.287304 0.280976 0.270775 0.274783 0.273348 0.283192 0.291009 0.288643 0.282603
          0.275657 0.282562 0.284682 0.287203 0.292394 0.291102 0.288716 0.287097 0.288286 0.289331 0.290197 0.293261
          0.292489 0.291282 0.290526 0.290764 0.291273 0.291686 0.288278 0.286376 0.28292 0.279303 0.278725 0.280404
          0.282041 0.287899 0.285333 0.279904 0.272259 0.27296 0.278087 0.281083 0.28774 0.284321 0.275087 0.252437
          0.257569 0.273607 0.27992 0.288394 0.284987 0.275983 0.258519 0.268292 0.27154 0.280864 0.289621 0.286171
          0.273257 0.27374 0.279878 0.28277 0.285465 0.29135 0.289704 0.286387 0.285371 0.286686 0.287942 0.288905
          0.292399 0.291488 0.290042 0.289289 0.289569 0.290154 0.290616 0.286927 0.284679 0.280671 0.276856 0.275102
          0.276163 0.278622 0.28653 0.283426 0.277117 0.270803 0.268929 0.274551 0.278054 0.2866 0.28292 0.273615
          0.25543 0.249812 0.270906 0.27758 0.287612 0.284331 0.276107 0.258003 0.268323 0.275708 0.280358 0.289205
          0.286637 0.280712 0.274456 0.279655 0.28281 0.284819 0.290963 0.28956 0.287055 0.285362 0.286269 0.287433
          0.288257 0.292014 0.291161 0.289832 0.288957 0.289087 0.289596 0.290008 0.286039 0.283391 0.278532 0.274527
          0.270845 0.26887 0.274892 0.285587 0.281202 0.270696 0.268237 0.26475 0.270798 0.275037 0.285979 0.281798
          0.269262 0.253549 0.248505 0.268977 0.275101 0.287432 0.284503 0.277868 0.26776 0.270146 0.276461 0.279734
          0.289297 0.287387 0.283711 0.280052 0.280983 0.283131 0.284569 0.291014 0.289903 0.288047 0.286561 0.286667
          0.287427 0.288035 0.292003 0.291271 0.290137 0.289267 0.289151 0.289471 0.289778 0.285854 0.283393 0.278815
          0.273493 0.266312 0.265161 0.272552 0.285618 0.282363 0.275704 0.268915 0.260513 0.267633 0.272366 0.286057
          0.282456 0.273684 0.261092 0.25215 0.266685 0.270589 0.287655 0.285164 0.280074 0.274075 0.272186 0.276355
          0.278835 0.289605 0.288077 0.285339 0.282668 0.282124 0.2834 0.284458 0.291261 0.29035 0.288858 0.287547
          0.287207 0.287612 0.288041 0.292187 0.291558 0.290573 0.289732 0.289436 0.289576 0.289782 0.286017 0.283704
          0.279264 0.273722 0.268086 0.268858 0.272722 0.285892 0.282932 0.276477 0.2685 0.256369 0.26495 0.271453
          0.286298 0.282472 0.269714 0.259485 0.247327 0.258725 0.270293 0.287975 0.285603 0.280519 0.275156 0.27191
          0.275539 0.278755 0.289939 0.288575 0.286123 0.283682 0.28264 0.28358 0.28459 0.291541 0.290734 0.289401
          0.288152 0.287617 0.287843 0.288188 0.29242 0.291854 0.290953 0.290127 0.289732 0.289763 0.289907 0.286314
          0.284136 0.279884 0.274298 0.269557 0.26969 0.273638 0.286287 0.283632 0.277801 0.268507 0.258516 0.261238
          0.272113 0.286776 0.283629 0.275022 0.253431 0.2485 0.266221 0.273896 0.288347 0.286212 0.281652 0.275082
          0.272568 0.276995 0.279883 0.290227 0.288961 0.286651 0.284111 0.283073 0.284069 0.285035 0.291769 0.291011
          0.28974 0.28849 0.287915 0.288108 0.288426 0.292613 0.292077 0.291212 0.290389 0.289962 0.289956 0.290077
          0.286575 0.284484 0.280383 0.275012 0.271403 0.273033 0.275573 0.286607 0.284151 0.278826 0.270211 0.262311
          0.269648 0.274804 0.287154 0.284502 0.278313 0.267016 0.252212 0.270057 0.276253 0.2886 0.286615 0.282515
          0.27687 0.27374 0.278251 0.280953 0.290393 0.289154 0.286882 0.284365 0.283389 0.284507 0.285489 0.291895
          0.291142 0.289869 0.288607 0.288071 0.288313 0.288648 0.292723 0.292191 0.291326 0.290499 0.290084 0.290094
          0.290221 0.286703 0.284608 0.280411 0.274693 0.272308 0.274891 0.277076 0.286726 0.284215 0.278335 0.265207
          0.261567 0.272226 0.276542 0.287248 0.284546 0.278035 0.265485 0.251529 0.271516 0.277586 0.28862 0.286479
          0.281724 0.274288 0.273257 0.27877 0.281614 0.290398 0.289063 0.286501 0.283502 0.283157 0.284674 0.285773
          0.291907 0.291116 0.289748 0.288384 0.288007 0.288385 0.288776 0.292742 0.292194 0.291296 0.290445 0.290079
          0.290143 0.290296 0.286717 0.284629 0.280527 0.275459 0.273837 0.276008 0.277898 0.286708 0.284141 0.278307
          0.268743 0.267832 0.274073 0.277492 0.287145 0.284072 0.275319 0.251185 0.256187 0.272957 0.27832 0.288482
          0.285956 0.279116 0.260381 0.272045 0.278939 0.281913 0.290299 0.288803 0.285649 0.281165 0.282563 0.284638
          0.285866 0.291843 0.290997 0.289486 0.287915 0.287809 0.288347 0.288795 0.292693 0.292125 0.291186 0.290298
          0.289993 0.290112 0.290291
        </DataArray>
        <DataArray type="Float32" Name="process rank" NumberOfComponents="1" format="ascii">
          0 0 0 0 0 0 0 0 0 0 0 0
          0 0 0 0 0 0 0 0 0 0 0 0
          0 0 0 0 0 0 0 0 0 0 0 0
          0 0 0 0 0 0 0 0 0 0 0 0
          0 0 0 0 0 0 0 0 0 0 0 0
          0 0 0 0 0 0 0 0 0 0 0 0
          0 0 0 0 0 0 0 0 0 0 0 0
          0 0 0 0 0 0 0 0 0 0 0 0
          0 0 0 0 0 0 0 0 0 0 0 0
          0 0 0 0 0 0 0 0 0 0 0 0
          0 0 0 0 0 0 0 0 0 0 0 0
          0 0 0 0 0 0 0 0 0 0 0 0
          0 0 0 0 0 0 0 0 0 0 0 0
          0 0 0 0 0 0 0 0 0 0 0 0
          0 0 0 0 0 0 0 0 0 0 0 0
          0 0 0 0 0 0 0 0 0 0 0 0
          0 0 0 0 0 0 0 0 0 0 0 0
          0 0 0 0 0 0 0 0 0 0 0 0
          0 0 0 0 0 0 0 0 0 0 0 0
          0 0 0 0 0 0 0 0 0 0 0 0
          0 0 0 0 0 0 0 0 0 0 0 0
          0 0 0 0 0 0 0 0 0 0 0 0
          0 0 0 0 0 0 0 0 0 0 0 0
          0 0 0 0 0 0 0 0 0 0 0 0
          0 0 0 0 0 0 0 0 0 0 0 0
          0 0 0 0 0 0 0 0 0 0 0 0
          0 0 0 0 0 0 0 0 0 0 0 0
          0 0 0 0 0 0 0 0 0 0 0 0
          0 0 0 0 0 0 0 0 0 0 0 0
          0 0 0 0 0 0 0 0 0 0 0 0
          0 0 0 0 0 0 0 0 0 0 0 0
          0 0 0 0 0 0 0 0 0 0 0 0
          0 0 0 0 0 0 0 0 0 0 0 0
          0 0 0 0 0 0 0 0 0 0 0 0
          0 0 0 0 0 0 0 0 0 0 0 0
          0 0 0 0 0 0 0 0 0 0 0 0
          0 0 0 0 0 0 0 0 0 0 0 0
          0 0 0 0 0 0 0 0 0 0 0 0
          0 0 0 0 0 0 0 0 0 0 0 0
          0 0 0 0 0 0 0 0 0 0 0 0
          0 0 0 0 0 0 0 0 0 0 0 0
          0 0 0 0 0 0 0 0 0 0 0 0
          0 0 0 0 0 0 0 0 0 0 0 0
          0 0 0 0 0 0 0 0 0 0 0 0
          0 0 0 0 0 0 0 0 0 0 0 0
          0 0 0 0 0 0 0 0 0 0 0 0
          0 0 0 0 0 0 0 0 0 0 0 0
          0 0 0 0 0 0 0 0 0 0 0 0
          0 0 0 0 0 0 0 0 0 0 0 0
          0 0 0 0 0 0 0 0 0 0 0 0
          0 0 0 0 0 0 0 0 0 0 0 0
          0 0 0 0 0 0 0 0 0 0 0 0
          0 0 0 0 0 0 0 0 0 0 0 0
          0 0 0 0 0 0 0 0 0 0 0 0
          0 0 0 0 0 0 0 0 0 0 0 0
          0 0 0 0 0 0 0 0 0 0 0 0
          0 0 0 0 0 0 0 0 0 0 0 0
          0 0 0 0 0 0 0 0 0 0 0 0
          0 0 0 0 0 0 0 0 0 0 0 0
          0 0 0 0 0 0 0 0 0 0 0 0
          0 0 0 0 0 0 0 0 0 0 0 0
          0 0 0
        </DataArray>
      </CellData>
      <Points>
        <DataArray type="Float32" Name="Coordinates" NumberOfComponents="3" format="ascii">
          -0.04 -0.04 -0.15 -0.0285714 -0.04 -0.15 -0.04 -0.0285714 -0.15 -0.0285714 -0.0285714 -0.15
          -0.04 -0.04 -0.14 -0.0285714 -0.04 -0.14 -0.04 -0.0285714 -0.14 -0.0285714 -0.0285714 -0.14
          -0.0171429 -0.04 -0.15 -0.0171429 -0.0285714 -0.15 -0.0171429 -0.04 -0.14 -0.0171429 -0.0285714 -0.14
          -0.00571429 -0.04 -0.15 -0.00571429 -0.0285714 -0.15 -0.00571429 -0.04 -0.14 -0.00571429 -0.0285714 -0.14
          0.00571429 -0.04 -0.15 0.00571429 -0.0285714 -0.15 0.00571429 -0.04 -0.14 0.00571429 -0.0285714 -0.14
          0.0171429 -0.04 -0.15 0.0171429 -0.0285714 -0.15 0.0171429 -0.04 -0.14 0.0171429 -0.0285714 -0.14
          0.0285714 -0.04 -0.15 0.0285714 -0.0285714 -0.15 0.0285714 -0.04 -0.14 0.0285714 -0.0285714 -0.14
          0.04 -0.04 -0.15 0.04 -0.0285714 -0.15 0.04 -0.04 -0.14 0.04 -0.0285714 -0.14
          -0.04 -0.0171429 -0.15 -0.0285714 -0.0171429 -0.15 -0.04 -0.0171429 -0.14 -0.0285714 -0.0171429 -0.14
          -0.0171429 -0.0171429 -0.15 -0.0171429 -0.0171429 -0.14 -0.00571429 -0.0171429 -0.15 -0.00571429 -0.0171429 -0.14
          0.00571429 -0.0171429 -0.15 0.00571429 -0.0171429 -0.14 0.0171429 -0.0171429 -0.15 0.0171429 -0.0171429 -0.14
          0.0285714 -0.0171429 -0.15 0.0285714 -0.0171429 -0.14 0.04 -0.0171429 -0.15 0.04 -0.0171429 -0.14
          -0.04 -0.00571429 -0.15 -0.0285714 -0.00571429 -0.15 -0.04 -0.00571429 -0.14 -0.0285714 -0.00571429 -0.14
          -0.0171429 -0.00571429 -0.15 -0.0171429 -0.00571429 -0.14 -0.00571429 -0.00571429 -0.15 -0.00571429 -0.00571429 -0.14
          0.00571429 -0.00571429 -0.15 0.00571429 -0.00571429 -0.14 0.0171429 -0.00571429 -0.15 0.0171429 -0.00571429 -0.14
          0.0285714 -0.00571429 -0.15 0.0285714 -0.00571429 -0.14 0.04 -0.00571429 -0.15 0.04 -0.00571429 -0.14
          -0.04 0.00571429 -0.15 -0.0285714 0.00571429 -0.15 -0.04 0.00571429 -0.14 -0.0285714 0.00571429 -0.14
          -0.0171429 0.00571429 -0.15 -0.0171429 0.00571429 -0.14 -0.00571429 0.00571429 -0.15 -0.00571429 0.00571429 -0.14
          0.00571429 0.00571429 -0.15 0.00571429 0.00571429 -0.14 0.0171429 0.00571429 -0.15 0.0171429 0.00571429 -0.14
          0.0285714 0.00571429 -0.15 0.0285714 0.00571429 -0.14 0.04 0.00571429 -0.15 0.04 0.00571429 -0.14
          -0.04 0.0171429 -0.15 -0.0285714 0.0171429 -0.15 -0.04 0.0171429 -0.14 -0.0285714 0.0171429 -0.14
          -0.0171429 0.0171429 -0.15 -0.0171429 0.0171429 -0.14 -0.00571429 0.0171429 -0.15 -0.00571429 0.0171429 -0.14
          0.00571429 0.0171429 -0.15 0.00571429 0.0171429 -0.14 0.0171429 0.0171429 -0.15 0.0171429 0.0171429 -0.14
          0.0285714 0.0171429 -0.15 0.0285714 0.0171429 -0.14 0.04 0.0171429 -0.15 0.04 0.0171429 -0.14
          -0.04 0.0285714 -0.15 -0.0285714 0.0285714 -0.15 -0.04 0.0285714 -0.14 -0.0285714 0.0285714 -0.14
          -0.0171429 0.0285714 -0.15 -0.0171429 0.0285714 -0.14 -0.00571429 0.0285714 -0.15 -0.00571429 0.0285714 -0.14
          0.00571429 0.0285714 -0.15 0.00571429 0.0285714 -0.14 0.0171429 0.0285714 -0.15 0.0171429 0.0285714 -0.14
          0.0285714 0.0285714 -0.15 0.0285714 0.0285714 -0.14 0.04 0.0285714 -0.15 0.04 0.0285714 -0.14
          -0.04 0.04 -0.15 -0.0285714 0.04 -0.15 -0.04 0.04 -0.14 -0.0285714 0.04 -0.14
          -0.0171429 0.04 -0.15 -0.0171429 0.04 -0.14 -0.00571429 0.04 -0.15 -0.00571429 0.04 -0.14
          0.00571429 0.04 -0.15 0.00571429 0.04 -0.14 0.0171429 0.04 -0.15 0.0171429 0.04 -0.14
          0.0285714 0.04 -0.15 0.0285714 0.04 -0.14 0.04 0.04 -0.15 0.04 0.04 -0.14
          -0.04 -0.04 -0.13 -0.0285714 -0.04 -0.13 -0.04 -0.0285714 -0.13 -0.0285714 -0.0285714 -0.13
          -0.0171429 -0.04 -0.13 -0.0171429 -0.0285714 -0.13 -0.00571429 -0.04 -0.13 -0.00571429 -0.0285714 -0.13
          0.00571429 -0.04 -0.13 0.00571429 -0.0285714 -0.13 0.0171429 -0.04 -0.13 0.0171429 -0.0285714 -0.13
          0.0285714 -0.04 -0.13 0.0285714 -0.0285714 -0.13 0.04 -0.04 -0.13 0.04 -0.0285714 -0.13
          -0.04 -0.0171429 -0.13 -0.0285714 -0.0171429 -0.13 -0.0171429 -0.0171429 -0.13 -0.00571429 -0.0171429 -0.13
          0.00571429 -0.0171429 -0.13 0.0171429 -0.0171429 -0.13 0.0285714 -0.0171429 -0.13 0.04 -0.0171429 -0.13
          -0.04 -0.00571429 -0.13 -0.0285714 -0.00571429 -0.13 -0.0171429 -0.00571429 -0.13 -0.00571429 -0.00571429 -0.13
          0.00571429 -0.00571429 -0.13 0.0171429 -0.00571429 -0.13 0.0285714 -0.00571429 -0.13 0.04 -0.00571429 -0.13
          -0.04 0.00571429 -0.13 -0.0285714 0.00571429 -0.13 -0.0171429 0.00571429 -0.13 -0.00571429 0.00571429 -0.13
          0.00571429 0.00571429 -0.13 0.0171429 0.00571429 -0.13 0.0285714 0.00571429 -0.13 0.04 0.00571429 -0.13
          -0.04 0.0171429 -0.13 -0.0285714 0.0171429 -0.13 -0.0171429 0.0171429 -0.13 -0.00571429 0.0171429 -0.13
          0.00571429 0.0171429 -0.13 0.0171429 0.0171429 -0.13 0.0285714 0.0171429 -0.13 0.04 0.0171429 -0.13
          -0.04 0.0285714 -0.13 -0.0285714 0.0285714 -0.13 -0.0171429 0.0285714 -0.13 -0.00571429 0.0285714 -0.13
          0.00571429 0.0285714 -0.13 0.0171429 0.0285714 -0.13 0.0285714 0.0285714 -0.13 0.04 0.0285714 -0.13
          -0.04 0.04 -0.13 -0.0285714 0.04 -0.13 -0.0171429 0.04 -0.13 -0.00571429 0.04 -0.13
          0.00571429 0.04 -0.13 0.0171429 0.04 -0.13 0.0285714 0.04 -0.13 0.04 0.04 -0.13
          -0.04 -0.04 -0.12 -0.0285714 -0.04 -0.12 -0.04 -0.0285714 -0.12 -0.0285714 -0.0285714 -0.12
          -0.0171429 -0.04 -0.12 -0.0171429 -0.0285714 -0.12 -0.00571429 -0.04 -0.12 -0.00571429 -0.0285714 -0.12
          0.00571429 -0.04 -0.12 0.00571429 -0.0285714 -0.12 0.0171429 -0.04 -0.12 0.0171429 -0.0285714 -0.12
          0.0285714 -0.04 -0.12 0.0285714 -0.0285714 -0.12 0.04 -0.04 -0.12 0.04 -0.0285714 -0.12
          -0.04 -0.0171429 -0.12 -0.0285714 -0.0171429 -0.12 -0.0171429 -0.0171429 -0.12 -0.00571429 -0.0171429 -0.12
          0.00571429 -0.0171429 -0.12 0.0171429 -0.0171429 -0.12 0.0285714 -0.0171429 -0.12 0.04 -0.0171429 -0.12
          -0.04 -0.00571429 -0.12 -0.0285714 -0.00571429 -0.12 -0.0171429 -0.00571429 -0.12 -0.00571429 -0.00571429 -0.12
          0.00571429 -0.00571429 -0.12 0.0171429 -0.00571429 -0.12 0.0285714 -0.00571429 -0.12 0.04 -0.00571429 -0.12
          -0.04 0.00571429 -0.12 -0.0285714 0.00571429 -0.12 -0.0171429 0.00571429 -0.12 -0.00571429 0.00571429 -0.12
          0.00571429 0.00571429 -0.12 0.0171429 0.00571429 -0.12 0.0285714 0.00571429 -0.12 0.04 0.00571429 -0.12
          -0.04 0.0171429 -0.12 -0.0285714 0.0171429 -0.12 -0.0171429 0.0171429 -0.12 -0.00571429 0.0171429 -0.12
          0.00571429 0.0171429 -0.12 0.0171429 0.0171429 -0.12 0.0285714 0.0171429 -0.12 0.04 0.0171429 -0.12
          -0.04 0.0285714 -0.12 -0.0285714 0.0285714 -0.12 -0.0171429 0.0285714 -0.12 -0.00571429 0.0285714 -0.12
          0.00571429 0.0285714 -0.12 0.0171429 0.0285714 -0.12 0.0285714 0.0285714 -0.12 0.04 0.0285714 -0.12
          -0.04 0.04 -0.12 -0.0285714 0.04 -0.12 -0.0171429 0.04 -0.12 -0.00571429 0.04 -0.12
          0.00571429 0.04 -0.12 0.0171429 0.04 -0.12 0.0285714 0.04 -0.12 0.04 0.04 -0.12
          -0.04 -0.04 -0.11 -0.0285714 -0.04 -0.11 -0.04 -0.0285714 -0.11 -0.0285714 -0.0285714 -0.11
          -0.0171429 -0.04 -0.11 -0.0171429 -0.0285714 -0.11 -0.00571429 -0.04 -0.11 -0.00571429 -0.0285714 -0.11
          0.00571429 -0.04 -0.11 0.00571429 -0.0285714 -0.11 0.0171429 -0.04 -0.11 0.0171429 -0.0285714 -0.11
          0.0285714 -0.04 -0.11 0.0285714 -0.0285714 -0.11 0.04 -0.04 -0.11 0.04 -0.0285714 -0.11
          -0.04 -0.0171429 -0.11 -0.0285714 -0.0171429 -0.11 -0.0171429 -0.0171429 -0.11 -0.00571429 -0.0171429 -0.11
          0.00571429 -0.0171429 -0.11 0.0171429 -0.0171429 -0.11 0.0285714 -0.0171429 -0.11 0.04 -0.0171429 -0.11
          -0.04 -0.00571429 -0.11 -0.0285714 -0.00571429 -0.11 -0.0171429 -0.00571429 -0.11 -0.00571429 -0.00571429 -0.11
          0.00571429 -0.00571429 -0.11 0.0171429 -0.00571429 -0.11 0.0285714 -0.00571429 -0.11 0.04 -0.00571429 -0.11
          -0.04 0.00571429 -0.11 -0.0285714 0.00571429 -0.11 -0.0171429 0.00571429 -0.11 -0.00571429 0.00571429 -0.11
          0.00571429 0.00571429 -0.11 0.0171429 0.00571429 -0.11 0.0285714 0.00571429 -0.11 0.04 0.00571429 -0.11
          -0.04 0.0171429 -0.11 -0.0285714 0.0171429 -0.11 -0.0171429 0.0171429 -0.11 -0.00571429 0.0171429 -0.11
          0.00571429 0.0171429 -0.11 0.0171429 0.0171429 -0.11 0.0285714 0.0171429 -0.11 0.04 0.0171429 -0.11
          -0.04 0.0285714 -0.11 -0.0285714 0.0285714 -0.11 -0.0171429 0.0285714 -0.11 -0.00571429 0.0285714 -0.11
          0.00571429 0.0285714 -0.11 0.0171429 0.0285714 -0.11 0.0285714 0.0285714 -0.11 0.04 0.0285714 -0.11
          -0.04 0.04 -0.11 -0.0285714 0.04 -0.11 -0.0171429 0.04 -0.11 -0.00571429 0.04 -0.11
          0.00571429 0.04 -0.11 0.0171429 0.04 -0.11 0.0285714 0.04 -0.11 0.04 0.04 -0.11
          -0.04 -0.04 -0.1 -0.0285714 -0.04 -0.1 -0.04 -0.0285714 -0.1 -0.0285714 -0.0285714 -0.1
          -0.0171429 -0.04 -0.1 -0.0171429 -0.0285714 -0.1 -0.00571429 -0.04 -0.1 -0.00571429 -0.0285714 -0.1
          0.00571429 -0.04 -0.1 0.00571429 -0.0285714 -0.1 0.0171429 -0.04 -0.1 0.0171429 -0.0285714 -0.1
          0.0285714 -0.04 -0.1 0.0285714 -0.0285714 -0.1 0.04 -0.04 -0.1 0.04 -0.0285714 -0.1
          -0.04 -0.0171429 -0.1 -0.0285714 -0.0171429 -0.1 -0.0171429 -0.0171429 -0.1 -0.00571429 -0.0171429 -0.1
          0.00571429 -0.0171429 -0.1 0.0171429 -0.0171429 -0.1 0.0285714 -0.0171429 -0.1 0.04 -0.0171429 -0.1
          -0.04 -0.00571429 -0.1 -0.0285714 -0.00571429 -0.1 -0.0171429 -0.00571429 -0.1 -0.00571429 -0.00571429 -0.1
          0.00571429 -0.00571429 -0.1 0.0171429 -0.00571429 -0.1 0.0285714 -0.00571429 -0.1 0.04 -0.00571429 -0.1
          -0.04 0.00571429 -0.1 -0.0285714 0.00571429 -0.1 -0.0171429 0.00571429 -0.1 -0.00571429 0.00571429 -0.1
          0.00571429 0.00571429 -0.1 0.0171429 0.00571429 -0.1 0.0285714 0.00571429 -0.1 0.04 0.00571429 -0.1
          -0.04 0.0171429 -0.1 -0.0285714 0.0171429 -0.1 -0.0171429 0.0171429 -0.1 -0.00571429 0.0171429 -0.1
          0.00571429 0.0171429 -0.1 0.0171429 0.0171429 -0.1 0.0285714 0.0171429 -0.1 0.04 0.0171429 -0.1
          -0.04 0.0285714 -0.1 -0.0285714 0.0285714 -0.1 -0.0171429 0.0285714 -0.1 -0.00571429 0.0285714 -0.1
          0.00571429 0.0285714 -0.1 0.0171429 0.0285714 -0.1 0.0285714 0.0285714 -0.1 0.04 0.0285714 -0.1
          -0.04 0.04 -0.1 -0.0285714 0.04 -0.1 -0.0171429 0.04 -0.1 -0.00571429 0.04 -0.1
          0.00571429 0.04 -0.1 0.0171429 0.04 -0.1 0.0285714 0.04 -0.1 0.04 0.04 -0.1
          -0.04 -0.04 -0.09 -0.0285714 -0.04 -0.09 -0.04 -0.0285714 -0.09 -0.0285714 -0.0285714 -0.09
          -0.0171429 -0.04 -0.09 -0.0171429 -0.0285714 -0.09 -0.00571429 -0.04 -0.09 -0.00571429 -0.0285714 -0.09
          0.00571429 -0.04 -0.09 0.00571429 -0.0285714 -0.09 0.0171429 -0.04 -0.09 0.0171429 -0.0285714 -0.09
          0.0285714 -0.04 -0.09 0.0285714 -0.0285714 -0.09 0.04 -0.04 -0.09 0.04 -0.0285714 -0.09
          -0.04 -0.0171429 -0.09 -0.0285714 -0.0171429 -0.09 -0.0171429 -0.0171429 -0.09 -0.00571429 -0.0171429 -0.09
          0.00571429 -0.0171429 -0.09 0.0171429 -0.0171429 -0.09 0.0285714 -0.0171429 -0.09 0.04 -0.0171429 -0.09
          -0.04 -0.00571429 -0.09 -0.0285714 -0.00571429 -0.09 -0.0171429 -0.00571429 -0.09 -0.00571429 -0.00571429 -0.09
          0.00571429 -0.00571429 -0.09 0.0171429 -0.00571429 -0.09 0.0285714 -0.00571429 -0.09 0.04 -0.00571429 -0.09
          -0.04 0.00571429 -0.09 -0.0285714 0.00571429 -0.09 -0.0171429 0.00571429 -0.09 -0.00571429 0.00571429 -0.09
          0.00571429 0.00571429 -0.09 0.0171429 0.00571429 -0.09 0.0285714 0.00571429 -0.09 0.04 0.00571429 -0.09
          -0.04 0.0171429 -0.09 -0.0285714 0.0171429 -0.09 -0.0171429 0.0171429 -0.09 -0.00571429 0.0171429 -0.09
          0.00571429 0.0171429 -0.09 0.0171429 0.0171429 -0.09 0.0285714 0.0171429 -0.09 0.04 0.0171429 -0.09
          -0.04 0.0285714 -0.09 -0.0285714 0.0285714 -0.09 -0.0171429 0.0285714 -0.09 -0.00571429 0.0285714 -0.09
          0.00571429 0.0285714 -0.09 0.0171429 0.0285714 -0.09 0.0285714 0.0285714 -0.09 0.04 0.0285714 -0.09
          -0.04 0.04 -0.09 -0.0285714 0.04 -0.09 -0.0171429 0.04 -0.09 -0.00571429 0.04 -0.09
          0.00571429 0.04 -0.09 0.0171429 0.04 -0.09 0.0285714 0.04 -0.09 0.04 0.04 -0.09
          -0.04 -0.04 -0.08 -0.0285714 -0.04 -0.08 -0.04 -0.0285714 -0.08 -0.0285714 -0.0285714 -0.08
          -0.0171429 -0.04 -0.08 -0.0171429 -0.0285714 -0.08 -0.00571429 -0.04 -0.08 -0.00571429 -0.0285714 -0.08
          0.00571429 -0.04 -0.08 0.00571429 -0.0285714 -0.08 0.0171429 -0.04 -0.08 0.0171429 -0.0285714 -0.08
          0.0285714 -0.04 -0.08 0.0285714 -0.0285714 -0.08 0.04 -0.04 -0.08 0.04 -0.0285714 -0.08
          -0.04 -0.0171429 -0.08 -0.0285714 -0.0171429 -0.08 -0.0171429 -0.0171429 -0.08 -0.00571429 -0.0171429 -0.08
          0.00571429 -0.0171429 -0.08 0.0171429 -0.0171429 -0.08 0.0285714 -0.0171429 -0.08 0.04 -0.0171429 -0.08
          -0.04 -0.00571429 -0.08 -0.0285714 -0.00571429 -0.08 -0.0171429 -0.00571429 -0.08 -0.00571429 -0.00571429 -0.08
          0.00571429 -0.00571429 -0.08 0.0171429 -0.00571429 -0.08 0.0285714 -0.00571429 -0.08 0.04 -0.00571429 -0.08
          -0.04 0.00571429 -0.08 -0.0285714 0.00571429 -0.08 -0.0171429 0.00571429 -0.08 -0.00571429 0.00571429 -0.08
          0.00571429 0.00571429 -0.08 0.0171429 0.00571429 -0.08 0.0285714 0.00571429 -0.08 0.04 0.00571429 -0.08
          -0.04 0.0171429 -0.08 -0.0285714 0.0171429 -0.08 -0.0171429 0.0171429 -0.08 -0.00571429 0.0171429 -0.08