<?xml version="1.0"?>
<VTKFile type="UnstructuredGrid" version="0.1" byte_order="LittleEndian">
  <UnstructuredGrid>
    <Piece NumberOfCells="735" NumberOfPoints="1024">
      <CellData Scalars="p (Pa)">
        <DataArray type="Float32" Name="p (Pa)" NumberOfComponents="1" format="ascii">
          22413.9 21449.8 19905.4 18618.9 18487.7 19121.9 19692.8 22501.6 21501 19860.5 18433.3 18313.3
          19043 19680.3 22833.2 21869.1 20282.9 18866.6 18654.9 19377.8 20025.7 23477.8 22658.9 21362.5
          20272 20067.8 20560.8 21056.2 24316.4 23673.5 22706.4 21970.9 21855.4 22185.8 22522.2 25131.6
          24649.1 23954.2 23462.2 23403.7 23638.9 23870.9 25635.2 25244.4 24695.3 24319.3 24282.7 24472.4
          24655.1 20506.8 19120.7 16771.6 14709.6 14881.6 16171.3 17160.1 20526.2 19022.3 16332.8 13672.2
          14039 15721.8 16927.6 20836.9 19361.1 16705.3 13948.6 13868.8 15741.7 17087.9 21557.1 20318.7
          18254.4 16424.2 16282.7 17361.4 18339.1 22540.8 21567.2 20067.9 19006.3 19036.8 19704 20314.4
          23565.5 22863.8 21855.9 21220.9 21285.8 21733.3 22124.1 24216.7 23673.4 22921.8 22465.9 22523
          22866.4 23159.3 16646.6 14192.4 9528.6 4701.39 6343.42 9714.99 11848.3 16467.8 13587.4 7383.61
          -1536.55 2515.46 7967.19 10950.4 16695.8 13792.6 7496.15 -2210.31 -1567.41 6424.19 10389.6 17552.8
          15148.9 10683.7 6071.64 6271.46 9417.62 12123.6 18822 16858.9 13576.1 11562.3 12364.9 14076.6
          15531.7 20372.3 19055.7 17113.3 16125.8 16673.2 17725.1 18549.3 21398.5 20457.9 19162.3 18523.7
          18880.6 19631.8 20203.2 10661.6 6050.73 -4424.35 -19795.9 -10696 -1495.29 3191.51 10018.9 3934.49
          -14355.8 -74528.4 -28186.9 -7250.35 633.83 10013.6 3681.9 -15354.9 -81150 -76755.7 -16869.1 -2417.62
          10993.3 5751.95 -5957.81 -22603.5 -20082.2 -10151.3 -201.014 12588 7723.55 -2714.29 -7415.29 -1588.22
          3079.48 7079.35 15290.6 12418.3 7704.32 5992.13 8447.08 11006.2 12860.2 17121.8 15309.6 12721.5
          11745.5 12966.7 14620.5 15767 2613.62 -5531.19 -28776.5 -94541.2 -42152.6 -18694.7 -9252.29 1106.66
          -11621.8 -81217.1 -1.22499e+06 -128781 -35165.7 -15170.9 645.346 -13148.4 -87191 -1.33809e+06 -1.32401e+06 -92694.3
          -25788.1 1500.24 -10358.8 -45621.1 -139250 -109780 -90172.5 -26792.3 2985.89 -11944.5 -74711.4 -88375.8
          -32855 -20185.7 -7025.1 8244.49 1469.1 -13142.7 -16379 -5381.96 748.212 4975.1 11658.1 8127.9
          2521.28 942.157 4533.98 7967.13 10156.5 -7008.77 -18492.2 -51368.1 -145851 -80960.5 -41455.5 -25520.4
          -9416.12 -27676.9 -119766 -1.33982e+06 -222556 -70366.7 -35465 -10125.5 -31102.4 -135707 -1.50221e+06 -1.33267e+06
          -177482 -58041.6 -9920.85 -34826 -150165 -1.26616e+06 -293669 -1.26619e+06 -101721 -9974.31 -70318.7 -1.19847e+06
          -1.26565e+06 -114490 -85717.6 -28258.9 513.142 -14696.6 -75002.4 -82678.6 -26374.3 -12945 -3834.38 6311.71
          261.743 -11420.6 -14190.3 -5197.34 929.852 4553.5 -18771.9 -34128.2 -71534.5 -175057 -165016 -79068
          -47890 -22713.3 -48815.7 -147841 -1.27306e+06 -1.26886e+06 -143256 -60425.3 -21022.8 -47954.7 -164420 -1.34214e+06
          -1.31348e+06 -229286 -84611.5 -18143.9 -49520.6 -193037 -1.29304e+06 -1.27832e+06 -1.2747e+06 -126145 -15685.4 -82580
          -1.23916e+06 -1.24463e+06 -167593 -101562 -37508.2 -2925.96 -19833.1 -87308.3 -104244 -37778.4 -19206.9 -8548.66
          3764.61 -3013.65 -16610 -21399.5 -10581.8 -3005.28 1225.32 -34601.3 -61158.6 -97195.2 -140649 -173537
          -175892 -85473.3 -46010.7 -126882 -210482 -310783 -346380 -151626 -85440.1 -32460.6 -72106 -228773
          -1.32092e+06 -1.32754e+06 -206205 -98161 -20307.5 -47468.6 -164160 -1.29052e+06 -302867 -156702 -71964.5 -10859.9
          -33644.7 -138938 -1.25111e+06 -120880 -50757.3 -29197.9 -585.475 -10352.3 -35315.3 -84129.5 -31026.4 -14544.9
          -7488.56 4909.03 -159.338 -9468.15 -16612.4 -8790.56 -2346.55 1108.26 -51174.7 -125812 -170756 -170976
          -332515 -1.28266e+06 -187740 -103350 -1.25284e+06 -1.27622e+06 -359256 -1.29322e+06 -268595 -137380 -43428.6 -141479
          -1.2849e+06 -1.31654e+06 -1.34175e+06 -214554 -177917 -18705.8 -43618.6 -152997 -1.29982e+06 -195032 -88502.2 -69527.5
          -5333.73 -16759.2 -47699.9 -131353 -57040 -32672.2 -24375.8 3469.52 -2110.23 -13348.2 -26729.7 -16330.3
          -8544.13 -4786.83 7836.43 4483.15 -1198.69 -5596.56 -2956.41 676.642 2840.96 -36021.4 -62706.4 -100212
          -197272 -1.28522e+06 -1.28483e+06 -246336 -47040 -129597 -211831 -322811 -1.29197e+06 -351784 -244073 -31052.2
          -73592.3 -234666 -1.31258e+06 -1.33109e+06 -286358 -1.27677e+06 -12640.9 -28921 -73866.6 -177850 -144262 -87656.5
          -118169 -264.436 -7395.92 -22573.9 -42527.3 -35778.8 -26076.1 -24624.3 7315.51 3732.56 -2669.82 -8675.43
          -7250.97 -4027.27 -2323.67 10925.2 8629.31 4900.21 1924.52 2240.31 3898.76 5064.18 -21744.4 -36486.4
          -67116.2 -124928 -301582 -360271 -186512 -25404 -53725.7 -142671 -264185 -1.30858e+06 -423074 -263060
          -22508.4 -87538.2 -1.28865e+06 -1.3e+06 -1.3246e+06 -1.29664e+06 -1.27518e+06 -7337.53 -23726.7 -90522.2 -130729 -133729
          -115943 -112030 3693.13 -2129.99 -14735 -25989.3 -27254.7 -22780.1 -20669.3 10352.7 7609.04 2823.06
          -1401.41 -2089.63 -638.992 446.361 13475.6 11712.1 8861.49 6440.22 5897.98 6612.38 7293.03 -12511.1
          -23269.2 -48490 -102278 -263922 -1.28165e+06 -198260 -13706 -29268.6 -74000.7 -215823 -1.2978e+06 -1.29289e+06
          -202725 -11261.5 -33150.9 -141468 -1.33333e+06 -1.32712e+06 -240591 -159004 -1759.36 -11984.5 -40114.5 -106596
          -119119 -63288 -48947.5 6868.69 2292.53 -6998.49 -18510.5 -21478.4 -14998.2 -11532.1 12569.8 10252.9
          6212.41 2267.61 1093.54 2415.43 3554.03 15324.4 13802.7 11314.3 9058.56 8272.39 8737.85 9303.21
          -7395.8 -17234.1 -42338.4 -98230.2 -212871 -196589 -97029 -7864.01 -20749 -61383.2 -210168 -1.30014e+06
          -243073 -98002.7 -5351.93 -18863.9 -62397.8 -214530 -1.32669e+06 -152538 -70459.7 1604.72 -6561.46 -26808.2
          -65138.7 -108859 -46779.2 -29497.4 8794.95 4586.81 -3974.38 -14914.9 -18618 -10525.6 -6050.66 13916
          11682.6 7709.27 3675.2 2647.82 4391.36 5814.35 16467.1 14992.8 12542.8 10271.2 9545.55 10127.5
          10775.4 -4977.22 -15303.1 -45569.4 -140244 -180483 -96677.6 -61649.7 -5603.11 -20687.2 -100722 -1.31944e+06
          -1.32337e+06 -156836 -65989.2 -3465 -18747.9 -93619.2 -962262 -1.33243e+06 -134948 -51639.2 2612.02 -6981.57
          -36918.1 -133975 -114961 -42034.8 -22585.8 9448.92 4600.51 -6585.96 -24535.1 -20519.1 -9002.72 -3457.85
          14476.4 12012.4 7357 2277.43 2517.45 5213.27 7046.43 17004.2 15440.1 12773.7 10281.5 9873.55
          10794.9 11620.1 -3815.03 -13365.1 -37591.2 -83416.6 -101430 -68141.6 -48215.6 -4491.68 -17642.2 -61263.9
          -205023 -233325 -92600.1 -51730.8 -3142.15 -20306.9 -113307 -1.33252e+06 -1.3315e+06 -126904 -45331.5 2319.66
          -10986.6 -85162.6 -1.32742e+06 -145574 -42218.7 -20349.8 9346.04 3296.97 -14481 -71039.3 -26919.6 -9236.27
          -2598.46 14537.8 11727.2 5899.84 -1896.43 1310.86 5258.69 7478.8 17130.3 15443.8 12475.7 9606.53
          9657.58 10944.6 11930.3
        </DataArray>
        <DataArray type="Float32" Name="saturation" NumberOfComponents="1" format="ascii">
          0.28834 0.287588 0.286413 0.285461 0.285366 0.285831 0.286254 0.288409 0.287627 0.286379 0.285326 0.285239
          0.285772 0.286245 0.288672 0.287913 0.286697 0.285643 0.285488 0.28602 0.286503 0.289188 0.288534 0.28752
          0.286689 0.286535 0.286907 0.287285 0.289869 0.289346 0.288571 0.287992 0.287902 0.288161 0.288425 0.290543
          0.290143 0.289573 0.289175 0.289128 0.289317 0.289505 0.290965 0.290637 0.290181 0.289871 0.289841 0.289997
          0.290148 0.286866 0.28583 0.284136 0.282711 0.282828 0.283716 0.284411 0.286881 0.285757 0.283828 0.282015
          0.28226 0.283404 0.284246 0.287117 0.286007 0.28409 0.282199 0.282146 0.283418 0.28436 0.287671 0.286724
          0.285196 0.283892 0.283793 0.284554 0.285258 0.28844 0.287679 0.286535 0.285745 0.285768 0.286262 0.286721
          0.289258 0.288696 0.287903 0.287411 0.287461 0.287807 0.288112 0.289787 0.289345 0.288742 0.288381 0.288426
          0.288698 0.288932 0.284048 0.282363 0.279362 0.276505 0.27745 0.279477 0.280823 0.283923 0.281959 0.278063
          0.273137 0.275285 0.278411 0.28025 0.284083 0.282095 0.27813 0.272793 0.273121 0.277497 0.279897 0.284691
          0.28301 0.280082 0.277292 0.277408 0.279293 0.281 0.28561 0.284198 0.281951 0.280639 0.281156 0.282285
          0.283273 0.286764 0.285782 0.284378 0.283684 0.284067 0.284814 0.285411 0.287548 0.286829 0.28586 0.285392
          0.285653 0.286209 0.286637 0.280068 0.27728 0.271687 0.264928 0.268749 0.273158 0.275658 0.279665 0.276072
          0.267154 0.249007 0.261794 0.27033 0.27427 0.279662 0.275931 0.266733 0.247617 0.24853 0.266105 0.272688
          0.280277 0.277107 0.270943 0.263842 0.264816 0.268994 0.27383 0.281302 0.278265 0.272538 0.270252 0.273111
          0.275596 0.277882 0.283107 0.281191 0.278254 0.277246 0.278701 0.280285 0.281479 0.284384 0.28312 0.281389
          0.280757 0.281549 0.282651 0.283435 0.275339 0.271149 0.261586 0.245041 0.257244 0.265366 0.269402 0.274523
          0.268338 0.247604 0.204712 0.239577 0.259427 0.26681 0.274277 0.267671 0.246419 0.203817 0.203922 0.245379
          0.262656 0.274734 0.2689 0.256223 0.23816 0.242433 0.245849 0.262292 0.275544 0.268196 0.248968 0.246191
          0.260189 0.264775 0.270436 0.278578 0.274717 0.267674 0.266307 0.271221 0.274331 0.27666 0.280701 0.278508
          0.275289 0.274435 0.27641 0.278411 0.279751 0.270443 0.265447 0.254615 0.237316 0.247656 0.257454 0.262754
          0.269327 0.261975 0.240883 0.203804 0.229611 0.249924 0.25933 0.269005 0.260781 0.238628 0.202701 0.203857
          0.233727 0.252865 0.269098 0.259537 0.236784 0.204372 0.224704 0.204372 0.243773 0.269074 0.249935 0.204939
          0.204376 0.241687 0.246705 0.261769 0.274206 0.26701 0.248905 0.247308 0.262443 0.267759 0.271978 0.277432
          0.274073 0.268427 0.267225 0.27131 0.274428 0.276421 0.265335 0.259766 0.249663 0.233979 0.235059 0.248045
          0.255576 0.2638 0.255317 0.237069 0.204317 0.20435 0.237643 0.252268 0.264448 0.255558 0.235126 0.203787
          0.204002 0.229075 0.246923 0.265587 0.255121 0.232193 0.204159 0.204275 0.204304 0.23995 0.266595 0.247328
          0.204593 0.204548 0.234776 0.2438 0.258675 0.272432 0.264914 0.246396 0.243344 0.25859 0.265161 0.269725
          0.275977 0.272388 0.266212 0.264303 0.2688 0.272392 0.274586 0.259611 0.252087 0.244563 0.237978 0.234138
          0.233892 0.246753 0.256111 0.239845 0.23062 0.22373 0.221898 0.236607 0.24676 0.260321 0.249537 0.229115
          0.203945 0.203895 0.230992 0.244392 0.264727 0.255695 0.235155 0.204179 0.224173 0.236005 0.249568 0.268676
          0.259926 0.2382 0.204494 0.240717 0.254781 0.261439 0.273629 0.268903 0.259378 0.247018 0.260807 0.267074
          0.270218 0.276623 0.273852 0.269303 0.266211 0.269613 0.272724 0.274523 0.254667 0.239998 0.234434 0.23441
          0.222583 0.204241 0.2327 0.243495 0.20448 0.204292 0.221291 0.204158 0.226261 0.238405 0.256864 0.237871
          0.204223 0.203978 0.203789 0.230273 0.233682 0.265361 0.256808 0.236443 0.204106 0.232005 0.246166 0.250114
          0.271244 0.26615 0.25563 0.239219 0.25312 0.26025 0.263176 0.275812 0.272844 0.267585 0.262315 0.266327
          0.269727 0.27151 0.278333 0.276381 0.273311 0.271117 0.272416 0.274293 0.275464 0.25915 0.25171 0.244033
          0.231797 0.20422 0.204223 0.227792 0.255817 0.239462 0.230504 0.223083 0.204167 0.22164 0.227956 0.260798
          0.24921 0.228659 0.204008 0.203869 0.225142 0.204287 0.267891 0.261535 0.249151 0.233689 0.237516 0.246329
          0.241123 0.273797 0.270261 0.263853 0.257132 0.259228 0.262551 0.263084 0.278022 0.275959 0.27256 0.269666
          0.270329 0.271883 0.272735 0.280234 0.278811 0.276618 0.274963 0.275135 0.276052 0.276711 0.26417 0.259001
          0.250666 0.240125 0.224246 0.221245 0.23282 0.262796 0.253983 0.237718 0.226552 0.204039 0.218645 0.226628
          0.263878 0.246352 0.204193 0.204105 0.203917 0.204131 0.2043 0.270289 0.263418 0.245784 0.239305 0.238894
          0.241463 0.242073 0.275937 0.272834 0.266994 0.262583 0.262126 0.263775 0.264586 0.279874 0.278197 0.275454
          0.273206 0.272854 0.273601 0.274171 0.281885 0.280735 0.278953 0.277507 0.277191 0.277608 0.278009 0.267948
          0.26359 0.255408 0.243677 0.22657 0.204249 0.231706 0.267431 0.261414 0.249121 0.230166 0.204122 0.20416
          0.231301 0.268497 0.26009 0.237872 0.203852 0.203898 0.228213 0.235739 0.273023 0.268178 0.257863 0.242952
          0.24098 0.25157 0.25528 0.277758 0.275164 0.270448 0.26544 0.264272 0.266883 0.268377 0.28129 0.279811
          0.277374 0.27515 0.274516 0.275231 0.275859 0.283131 0.282102 0.280481 0.279073 0.278595 0.278877 0.279223
          0.270261 0.265956 0.257189 0.24438 0.230415 0.23186 0.244593 0.270042 0.264555 0.252032 0.230647 0.204104
          0.228029 0.24442 0.271235 0.265298 0.251785 0.230275 0.203902 0.236498 0.249903 0.27479 0.270655 0.262286
          0.251129 0.242582 0.255891 0.261334 0.278912 0.27644 0.271909 0.266918 0.265396 0.268825 0.270899 0.282178
          0.280716 0.278257 0.275927 0.275358 0.276329 0.277143 0.283922 0.282904 0.281272 0.279823 0.279372 0.279733
          0.280139 0.271417 0.266755 0.256238 0.23803 0.23342 0.244656 0.251967 0.271114 0.264579 0.243945 0.203956
          0.203927 0.23599 0.250929 0.272162 0.265344 0.245209 0.207358 0.203859 0.23873 0.254541 0.275338 0.270456
          0.258863 0.238861 0.241614 0.25728 0.263848 0.279313 0.276447 0.270644 0.263117 0.264645 0.269516 0.272165
          0.282554 0.280928 0.278047 0.275155 0.275287 0.276797 0.277863 0.284301 0.28321 0.281423 0.279829 0.279575
          0.280152 0.280676 0.271988 0.267578 0.258649 0.24716 0.243823 0.25043 0.255485 0.271654 0.26579 0.252061
          0.231096 0.228762 0.245396 0.254516 0.272323 0.264728 0.241872 0.203858 0.203866 0.239842 0.256307 0.275178
          0.268619 0.246814 0.203896 0.237351 0.257224 0.264711 0.279249 0.275716 0.267101 0.249774 0.262246 0.269409
          0.272596 0.282595 0.280745 0.277192 0.272953 0.274632 0.276823 0.278119 0.28439 0.283212 0.281228 0.27941
          0.279441 0.280246 0.280875
        </DataArray>
        <DataArray type="Float32" Name="process rank" NumberOfComponents="1" format="ascii">
          0 0 0 0 0 0 0 0 0 0 0 0
          0 0 0 0 0 0 0 0 0 0 0 0
          0 0 0 0 0 0 0 0 0 0 0 0
          0 0 0 0 0 0 0 0 0 0 0 0
          0 0 0 0 0 0 0 0 0 0 0 0
          0 0 0 0 0 0 0 0 0 0 0 0
          0 0 0 0 0 0 0 0 0 0 0 0
          0 0 0 0 0 0 0 0 0 0 0 0
          0 0 0 0 0 0 0 0 0 0 0 0
          0 0 0 0 0 0 0 0 0 0 0 0
          0 0 0 0 0 0 0 0 0 0 0 0
          0 0 0 0 0 0 0 0 0 0 0 0
          0 0 0 0 0 0 0 0 0 0 0 0
          0 0 0 0 0 0 0 0 0 0 0 0
          0 0 0 0 0 0 0 0 0 0 0 0
          0 0 0 0 0 0 0 0 0 0 0 0
          0 0 0 0 0 0 0 0 0 0 0 0
          0 0 0 0 0 0 0 0 0 0 0 0
          0 0 0 0 0 0 0 0 0 0 0 0
          0 0 0 0 0 0 0 0 0 0 0 0
          0 0 0 0 0 0 0 0 0 0 0 0
          0 0 0 0 0 0 0 0 0 0 0 0
          0 0 0 0 0 0 0 0 0 0 0 0
          0 0 0 0 0 0 0 0 0 0 0 0
          0 0 0 0 0 0 0 0 0 0 0 0
          0 0 0 0 0 0 0 0 0 0 0 0
          0 0 0 0 0 0 0 0 0 0 0 0
          0 0 0 0 0 0 0 0 0 0 0 0
          0 0 0 0 0 0 0 0 0 0 0 0
          0 0 0 0 0 0 0 0 0 0 0 0
          0 0 0 0 0 0 0 0 0 0 0 0
          0 0 0 0 0 0 0 0 0 0 0 0
          0 0 0 0 0 0 0 0 0 0 0 0
          0 0 0 0 0 0 0 0 0 0 0 0
          0 0 0 0 0 0 0 0 0 0 0 0
          0 0 0 0 0 0 0 0 0 0 0 0
          0 0 0 0 0 0 0 0 0 0 0 0
          0 0 0 0 0 0 0 0 0 0 0 0
          0 0 0 0 0 0 0 0 0 0 0 0
          0 0 0 0 0 0 0 0 0 0 0 0
          0 0 0 0 0 0 0 0 0 0 0 0
          0 0 0 0 0 0 0 0 0 0 0 0
          0 0 0 0 0 0 0 0 0 0 0 0
          0 0 0 0 0 0 0 0 0 0 0 0
          0 0 0 0 0 0 0 0 0 0 0 0
          0 0 0 0 0 0 0 0 0 0 0 0
          0 0 0 0 0 0 0 0 0 0 0 0
          0 0 0 0 0 0 0 0 0 0 0 0
          0 0 0 0 0 0 0 0 0 0 0 0
          0 0 0 0 0 0 0 0 0 0 0 0
          0 0 0 0 0 0 0 0 0 0 0 0
          0 0 0 0 0 0 0 0 0 0 0 0
          0 0 0 0 0 0 0 0 0 0 0 0
          0 0 0 0 0 0 0 0 0 0 0 0
          0 0 0 0 0 0 0 0 0 0 0 0
          0 0 0 0 0 0 0 0 0 0 0 0
          0 0 0 0 0 0 0 0 0 0 0 0
          0 0 0 0 0 0 0 0 0 0 0 0
          0 0 0 0 0 0 0 0 0 0 0 0
          0 0 0 0 0 0 0 0 0 0 0 0
          0 0 0 0 0 0 0 0 0 0 0 0
          0 0 0
        </DataArray>
      </CellData>
      <Points>
        <DataArray type="Float32" Name="Coordinates" NumberOfComponents="3" format="ascii">
          -0.04 -0.04 -0.15 -0.0285714 -0.04 -0.15 -0.04 -0.0285714 -0.15 -0.0285714 -0.0285714 -0.15
          -0.04 -0.04 -0.14 -0.0285714 -0.04 -0.14 -0.04 -0.0285714 -0.14 -0.0285714 -0.0285714 -0.14
          -0.0171429 -0.04 -0.15 -0.0171429 -0.0285714 -0.15 -0.0171429 -0.04 -0.14 -0.0171429 -0.0285714 -0.14
          -0.00571429 -0.04 -0.15 -0.00571429 -0.0285714 -0.15 -0.00571429 -0.04 -0.14 -0.00571429 -0.0285714 -0.14
          0.00571429 -0.04 -0.15 0.00571429 -0.0285714 -0.15 0.00571429 -0.04 -0.14 0.00571429 -0.0285714 -0.14
          0.0171429 -0.04 -0.15 0.0171429 -0.0285714 -0.15 0.0171429 -0.04 -0.14 0.0171429 -0.0285714 -0.14
          0.0285714 -0.04 -0.15 0.0285714 -0.0285714 -0.15 0.0285714 -0.04 -0.14 0.0285714 -0.0285714 -0.14
          0.04 -0.04 -0.15 0.04 -0.0285714 -0.15 0.04 -0.04 -0.14 0.04 -0.0285714 -0.14
          -0.04 -0.0171429 -0.15 -0.0285714 -0.0171429 -0.15 -0.04 -0.0171429 -0.14 -0.0285714 -0.0171429 -0.14
          -0.0171429 -0.0171429 -0.15 -0.0171429 -0.0171429 -0.14 -0.00571429 -0.0171429 -0.15 -0.00571429 -0.0171429 -0.14
          0.00571429 -0.0171429 -0.15 0.00571429 -0.0171429 -0.14 0.0171429 -0.0171429 -0.15 0.0171429 -0.0171429 -0.14
          0.0285714 -0.0171429 -0.15 0.0285714 -0.0171429 -0.14 0.04 -0.0171429 -0.15 0.04 -0.0171429 -0.14
          -0.04 -0.00571429 -0.15 -0.0285714 -0.00571429 -0.15 -0.04 -0.00571429 -0.14 -0.0285714 -0.00571429 -0.14
          -0.0171429 -0.00571429 -0.15 -0.0171429 -0.00571429 -0.14 -0.00571429 -0.00571429 -0.15 -0.00571429 -0.00571429 -0.14
          0.00571429 -0.00571429 -0.15 0.00571429 -0.00571429 -0.14 0.0171429 -0.00571429 -0.15 0.0171429 -0.00571429 -0.14
          0.0285714 -0.00571429 -0.15 0.0285714 -0.00571429 -0.14 0.04 -0.00571429 -0.15 0.04 -0.00571429 -0.14
          -0.04 0.00571429 -0.15 -0.0285714 0.00571429 -0.15 -0.04 0.00571429 -0.14 -0.0285714 0.00571429 -0.14
          -0.0171429 0.00571429 -0.15 -0.0171429 0.00571429 -0.14 -0.00571429 0.00571429 -0.15 -0.00571429 0.00571429 -0.14
          0.00571429 0.00571429 -0.15 0.00571429 0.00571429 -0.14 0.0171429 0.00571429 -0.15 0.0171429 0.00571429 -0.14
          0.0285714 0.00571429 -0.15 0.0285714 0.00571429 -0.14 0.04 0.00571429 -0.15 0.04 0.00571429 -0.14
          -0.04 0.0171429 -0.15 -0.0285714 0.0171429 -0.15 -0.04 0.0171429 -0.14 -0.0285714 0.0171429 -0.14
          -0.0171429 0.0171429 -0.15 -0.0171429 0.0171429 -0.14 -0.00571429 0.0171429 -0.15 -0.00571429 0.0171429 -0.14
          0.00571429 0.0171429 -0.15 0.00571429 0.0171429 -0.14 0.0171429 0.0171429 -0.15 0.0171429 0.0171429 -0.14
          0.0285714 0.0171429 -0.15 0.0285714 0.0171429 -0.14 0.04 0.0171429 -0.15 0.04 0.0171429 -0.14
          -0.04 0.0285714 -0.15 -0.0285714 0.0285714 -0.15 -0.04 0.0285714 -0.14 -0.0285714 0.0285714 -0.14
          -0.0171429 0.0285714 -0.15 -0.0171429 0.0285714 -0.14 -0.00571429 0.0285714 -0.15 -0.00571429 0.0285714 -0.14
          0.00571429 0.0285714 -0.15 0.00571429 0.0285714 -0.14 0.0171429 0.0285714 -0.15 0.0171429 0.0285714 -0.14
          0.0285714 0.0285714 -0.15 0.0285714 0.0285714 -0.14 0.04 0.0285714 -0.15 0.04 0.0285714 -0.14
          -0.04 0.04 -0.15 -0.0285714 0.04 -0.15 -0.04 0.04 -0.14 -0.0285714 0.04 -0.14
          -0.0171429 0.04 -0.15 -0.0171429 0.04 -0.14 -0.00571429 0.04 -0.15 -0.00571429 0.04 -0.14
          0.00571429 0.04 -0.15 0.00571429 0.04 -0.14 0.0171429 0.04 -0.15 0.0171429 0.04 -0.14
          0.0285714 0.04 -0.15 0.0285714 0.04 -0.14 0.04 0.04 -0.15 0.04 0.04 -0.14
          -0.04 -0.04 -0.13 -0.0285714 -0.04 -0.13 -0.04 -0.0285714 -0.13 -0.0285714 -0.0285714 -0.13
          -0.0171429 -0.04 -0.13 -0.0171429 -0.0285714 -0.13 -0.00571429 -0.04 -0.13 -0.00571429 -0.0285714 -0.13
          0.00571429 -0.04 -0.13 0.00571429 -0.0285714 -0.13 0.0171429 -0.04 -0.13 0.0171429 -0.0285714 -0.13
          0.0285714 -0.04 -0.13 0.0285714 -0.0285714 -0.13 0.04 -0.04 -0.13 0.04 -0.0285714 -0.13
          -0.04 -0.0171429 -0.13 -0.0285714 -0.0171429 -0.13 -0.0171429 -0.0171429 -0.13 -0.00571429 -0.0171429 -0.13
          0.00571429 -0.0171429 -0.13 0.0171429 -0.0171429 -0.13 0.0285714 -0.0171429 -0.13 0.04 -0.0171429 -0.13
          -0.04 -0.00571429 -0.13 -0.0285714 -0.00571429 -0.13 -0.0171429 -0.00571429 -0.13 -0.00571429 -0.00571429 -0.13
          0.00571429 -0.00571429 -0.13 0.0171429 -0.00571429 -0.13 0.0285714 -0.00571429 -0.13 0.04 -0.00571429 -0.13
          -0.04 0.00571429 -0.13 -0.0285714 0.00571429 -0.13 -0.0171429 0.00571429 -0.13 -0.00571429 0.00571429 -0.13
          0.00571429 0.00571429 -0.13 0.0171429 0.00571429 -0.13 0.0285714 0.00571429 -0.13 0.04 0.00571429 -0.13
          -0.04 0.0171429 -0.13 -0.0285714 0.0171429 -0.13 -0.0171429 0.0171429 -0.13 -0.00571429 0.0171429 -0.13
          0.00571429 0.0171429 -0.13 0.0171429 0.0171429 -0.13 0.0285714 0.0171429 -0.13 0.04 0.0171429 -0.13
          -0.04 0.0285714 -0.13 -0.0285714 0.0285714 -0.13 -0.0171429 0.0285714 -0.13 -0.00571429 0.0285714 -0.13
          0.00571429 0.0285714 -0.13 0.0171429 0.0285714 -0.13 0.0285714 0.0285714 -0.13 0.04 0.0285714 -0.13
          -0.04 0.04 -0.13 -0.0285714 0.04 -0.13 -0.0171429 0.04 -0.13 -0.00571429 0.04 -0.13
          0.00571429 0.04 -0.13 0.0171429 0.04 -0.13 0.0285714 0.04 -0.13 0.04 0.04 -0.13
          -0.04 -0.04 -0.12 -0.0285714 -0.04 -0.12 -0.04 -0.0285714 -0.12 -0.0285714 -0.0285714 -0.12
          -0.0171429 -0.04 -0.12 -0.0171429 -0.0285714 -0.12 -0.00571429 -0.04 -0.12 -0.00571429 -0.0285714 -0.12
          0.00571429 -0.04 -0.12 0.00571429 -0.0285714 -0.12 0.0171429 -0.04 -0.12 0.0171429 -0.0285714 -0.12
          0.0285714 -0.04 -0.12 0.0285714 -0.0285714 -0.12 0.04 -0.04 -0.12 0.04 -0.0285714 -0.12
          -0.04 -0.0171429 -0.12 -0.0285714 -0.0171429 -0.12 -0.0171429 -0.0171429 -0.12 -0.00571429 -0.0171429 -0.12
          0.00571429 -0.0171429 -0.12 0.0171429 -0.0171429 -0.12 0.0285714 -0.0171429 -0.12 0.04 -0.0171429 -0.12
          -0.04 -0.00571429 -0.12 -0.0285714 -0.00571429 -0.12 -0.0171429 -0.00571429 -0.12 -0.00571429 -0.00571429 -0.12
          0.00571429 -0.00571429 -0.12 0.0171429 -0.00571429 -0.12 0.0285714 -0.00571429 -0.12 0.04 -0.00571429 -0.12
          -0.04 0.00571429 -0.12 -0.0285714 0.00571429 -0.12 -0.0171429 0.00571429 -0.12 -0.00571429 0.00571429 -0.12
          0.00571429 0.00571429 -0.12 0.0171429 0.00571429 -0.12 0.0285714 0.00571429 -0.12 0.04 0.00571429 -0.12
          -0.04 0.0171429 -0.12 -0.0285714 0.0171429 -0.12 -0.0171429 0.0171429 -0.12 -0.00571429 0.0171429 -0.12
          0.00571429 0.0171429 -0.12 0.0171429 0.0171429 -0.12 0.0285714 0.0171429 -0.12 0.04 0.0171429 -0.12
          -0.04 0.0285714 -0.12 -0.0285714 0.0285714 -0.12 -0.0171429 0.0285714 -0.12 -0.00571429 0.0285714 -0.12
          0.00571429 0.0285714 -0.12 0.0171429 0.0285714 -0.12 0.0285714 0.0285714 -0.12 0.04 0.0285714 -0.12
          -0.04 0.04 -0.12 -0.0285714 0.04 -0.12 -0.0171429 0.04 -0.12 -0.00571429 0.04 -0.12
          0.00571429 0.04 -0.12 0.0171429 0.04 -0.12 0.0285714 0.04 -0.12 0.04 0.04 -0.12
          -0.04 -0.04 -0.11 -0.0285714 -0.04 -0.11 -0.04 -0.0285714 -0.11 -0.0285714 -0.0285714 -0.11
          -0.0171429 -0.04 -0.11 -0.0171429 -0.0285714 -0.11 -0.00571429 -0.04 -0.11 -0.00571429 -0.0285714 -0.11
          0.00571429 -0.04 -0.11 0.00571429 -0.0285714 -0.11 0.0171429 -0.04 -0.11 0.0171429 -0.0285714 -0.11
          0.0285714 -0.04 -0.11 0.0285714 -0.0285714 -0.11 0.04 -0.04 -0.11 0.04 -0.0285714 -0.11
          -0.04 -0.0171429 -0.11 -0.0285714 -0.0171429 -0.11 -0.0171429 -0.0171429 -0.11 -0.00571429 -0.0171429 -0.11
          0.00571429 -0.0171429 -0.11 0.0171429 -0.0171429 -0.11 0.0285714 -0.0171429 -0.11 0.04 -0.0171429 -0.11
          -0.04 -0.00571429 -0.11 -0.0285714 -0.00571429 -0.11 -0.0171429 -0.00571429 -0.11 -0.00571429 -0.00571429 -0.11
          0.00571429 -0.00571429 -0.11 0.0171429 -0.00571429 -0.11 0.0285714 -0.00571429 -0.11 0.04 -0.00571429 -0.11
          -0.04 0.00571429 -0.11 -0.0285714 0.00571429 -0.11 -0.0171429 0.00571429 -0.11 -0.00571429 0.00571429 -0.11
          0.00571429 0.00571429 -0.11 0.0171429 0.00571429 -0.11 0.0285714 0.00571429 -0.11 0.04 0.00571429 -0.11
          -0.04 0.0171429 -0.11 -0.0285714 0.0171429 -0.11 -0.0171429 0.0171429 -0.11 -0.00571429 0.0171429 -0.11
          0.00571429 0.0171429 -0.11 0.0171429 0.0171429 -0.11 0.0285714 0.0171429 -0.11 0.04 0.0171429 -0.11
          -0.04 0.0285714 -0.11 -0.0285714 0.0285714 -0.11 -0.0171429 0.0285714 -0.11 -0.00571429 0.0285714 -0.11
          0.00571429 0.0285714 -0.11 0.0171429 0.0285714 -0.11 0.0285714 0.0285714 -0.11 0.04 0.0285714 -0.11
          -0.04 0.04 -0.11 -0.0285714 0.04 -0.11 -0.0171429 0.04 -0.11 -0.00571429 0.04 -0.11
          0.00571429 0.04 -0.11 0.0171429 0.04 -0.11 0.0285714 0.04 -0.11 0.04 0.04 -0.11
          -0.04 -0.04 -0.1 -0.0285714 -0.04 -0.1 -0.04 -0.0285714 -0.1 -0.0285714 -0.0285714 -0.1
          -0.0171429 -0.04 -0.1 -0.0171429 -0.0285714 -0.1 -0.00571429 -0.04 -0.1 -0.00571429 -0.0285714 -0.1
          0.00571429 -0.04 -0.1 0.00571429 -0.0285714 -0.1 0.0171429 -0.04 -0.1 0.0171429 -0.0285714 -0.1
          0.0285714 -0.04 -0.1 0.0285714 -0.0285714 -0.1 0.04 -0.04 -0.1 0.04 -0.0285714 -0.1
          -0.04 -0.0171429 -0.1 -0.0285714 -0.0171429 -0.1 -0.0171429 -0.0171429 -0.1 -0.00571429 -0.0171429 -0.1
          0.00571429 -0.0171429 -0.1 0.0171429 -0.0171429 -0.1 0.0285714 -0.0171429 -0.1 0.04 -0.0171429 -0.1
          -0.04 -0.00571429 -0.1 -0.0285714 -0.00571429 -0.1 -0.0171429 -0.00571429 -0.1 -0.00571429 -0.00571429 -0.1
          0.00571429 -0.00571429 -0.1 0.0171429 -0.00571429 -0.1 0.0285714 -0.00571429 -0.1 0.04 -0.00571429 -0.1
          -0.04 0.00571429 -0.1 -0.0285714 0.00571429 -0.1 -0.0171429 0.00571429 -0.1 -0.00571429 0.00571429 -0.1
          0.00571429 0.00571429 -0.1 0.0171429 0.00571429 -0.1 0.0285714 0.00571429 -0.1 0.04 0.00571429 -0.1
          -0.04 0.0171429 -0.1 -0.0285714 0.0171429 -0.1 -0.0171429 0.0171429 -0.1 -0.00571429 0.0171429 -0.1
          0.00571429 0.0171429 -0.1 0.0171429 0.0171429 -0.1 0.0285714 0.0171429 -0.1 0.04 0.0171429 -0.1
          -0.04 0.0285714 -0.1 -0.0285714 0.0285714 -0.1 -0.0171429 0.0285714 -0.1 -0.00571429 0.0285714 -0.1
          0.00571429 0.0285714 -0.1 0.0171429 0.0285714 -0.1 0.0285714 0.0285714 -0.1 0.04 0.0285714 -0.1
          -0.04 0.04 -0.1 -0.0285714 0.04 -0.1 -0.0171429 0.04 -0.1 -0.00571429 0.04 -0.1
          0.00571429 0.04 -0.1 0.0171429 0.04 -0.1 0.0285714 0.04 -0.1 0.04 0.04 -0.1
          -0.04 -0.04 -0.09 -0.0285714 -0.04 -0.09 -0.04 -0.0285714 -0.09 -0.0285714 -0.0285714 -0.09
          -0.0171429 -0.04 -0.09 -0.0171429 -0.0285714 -0.09 -0.00571429 -0.04 -0.09 -0.00571429 -0.0285714 -0.09
          0.00571429 -0.04 -0.09 0.00571429 -0.0285714 -0.09 0.0171429 -0.04 -0.09 0.0171429 -0.0285714 -0.09
          0.0285714 -0.04 -0.09 0.0285714 -0.0285714 -0.09 0.04 -0.04 -0.09 0.04 -0.0285714 -0.09
          -0.04 -0.0171429 -0.09 -0.0285714 -0.0171429 -0.09 -0.0171429 -0.0171429 -0.09 -0.00571429 -0.0171429 -0.09
          0.00571429 -0.0171429 -0.09 0.0171429 -0.0171429 -0.09 0.0285714 -0.0171429 -0.09 0.04 -0.0171429 -0.09
          -0.04 -0.00571429 -0.09 -0.0285714 -0.00571429 -0.09 -0.0171429 -0.00571429 -0.09 -0.00571429 -0.00571429 -0.09
          0.00571429 -0.00571429 -0.09 0.0171429 -0.00571429 -0.09 0.0285714 -0.00571429 -0.09 0.04 -0.00571429 -0.09
          -0.04 0.00571429 -0.09 -0.0285714 0.00571429 -0.09 -0.0171429 0.00571429 -0.09 -0.00571429 0.00571429 -0.09
          0.00571429 0.00571429 -0.09 0.0171429 0.00571429 -0.09 0.0285714 0.00571429 -0.09 0.04 0.00571429 -0.09
          -0.04 0.0171429 -0.09 -0.0285714 0.0171429 -0.09 -0.0171429 0.0171429 -0.09 -0.00571429 0.0171429 -0.09
          0.00571429 0.0171429 -0.09 0.0171429 0.0171429 -0.09 0.0285714 0.0171429 -0.09 0.04 0.0171429 -0.09
          -0.04 0.0285714 -0.09 -0.0285714 0.0285714 -0.09 -0.0171429 0.0285714 -0.09 -0.00571429 0.0285714 -0.09
          0.00571429 0.0285714 -0.09 0.0171429 0.0285714 -0.09 0.0285714 0.0285714 -0.09 0.04 0.0285714 -0.09
          -0.04 0.04 -0.09 -0.0285714 0.04 -0.09 -0.0171429 0.04 -0.09 -0.00571429 0.04 -0.09
          0.00571429 0.04 -0.09 0.0171429 0.04 -0.09 0.0285714 0.04 -0.09 0.04 0.04 -0.09
          -0.04 -0.04 -0.08 -0.0285714 -0.04 -0.08 -0.04 -0.0285714 -0.08 -0.0285714 -0.0285714 -0.08
          -0.0171429 -0.04 -0.08 -0.0171429 -0.0285714 -0.08 -0.00571429 -0.04 -0.08 -0.00571429 -0.0285714 -0.08
          0.00571429 -0.04 -0.08 0.00571429 -0.0285714 -0.08 0.0171429 -0.04 -0.08 0.0171429 -0.0285714 -0.08
          0.0285714 -0.04 -0.08 0.0285714 -0.0285714 -0.08 0.04 -0.04 -0.08 0.04 -0.0285714 -0.08
          -0.04 -0.0171429 -0.08 -0.0285714 -0.0171429 -0.08 -0.0171429 -0.0171429 -0.08 -0.00571429 -0.0171429 -0.08
          0.00571429 -0.0171429 -0.08 0.0171429 -0.0171429 -0.08 0.0285714 -0.0171429 -0.08 0.04 -0.0171429 -0.08
          -0.04 -0.00571429 -0.08 -0.0285714 -0.00571429 -0.08 -0.0171429 -0.00571429 -0.08 -0.00571429 -0.00571429 -0.08