<?xml version="1.0"?>
<VTKFile type="UnstructuredGrid" version="0.1" byte_order="LittleEndian">
  <UnstructuredGrid>
    <Piece NumberOfCells="735" NumberOfPoints="1024">
      <CellData Scalars="p (Pa)">
        <DataArray type="Float32" Name="p (Pa)" NumberOfComponents="1" format="ascii">
          22419.6 21457.1 19915.2 18630.4 18498.9 19131.4 19701 22507.7 21508.7 19870.8 18445.5 18325.3
          19053.5 19689.5 22839.9 21877.3 20293.5 18879 18667.4 19389.2 20036 23484.7 22667.1 21372.7
          20283.7 20079.8 20572 21066.7 24323.3 23681.5 22715.7 21981.2 21865.8 22195.6 22531.6 25138.1
          24656.4 23962.4 23471 23412.4 23647.2 23878.8 25641.4 25251.2 24702.9 24327.1 24290.4 24479.7
          24662.1 20514.1 19130.3 16784.9 14725.5 14896.8 16183.8 17170.7 20534.1 19032.5 16346.7 13688.8
          14055.4 15735.9 16939.8 20845.6 19372 16719.6 13965.6 13885.9 15757.2 17102 21566.3 20329.8
          18268.3 16440.3 16299.2 17376.8 18353.6 22550 21577.8 20080.5 19020.2 19050.9 19717.4 20327.1
          23574.1 22873.5 21866.9 21232.6 21297.3 21744.1 22134.4 24224.8 23682.3 22931.7 22476.2 22532.9
          22875.7 23168.1 16657.1 14206.8 9549.9 4728.15 6368.38 9734.51 11864.2 16479.4 13603 7406.1
          -1508.65 2542.86 7989.89 10969.8 16709 13809.6 7519.41 -2182.04 -1538.95 6450.21 10413.3 17567.1
          15166.5 10706.7 6098.89 6299.46 9443.64 12148 18836.2 16875.7 13596.5 11585.1 12387.7 14098.3
          15552.4 20385.5 19070.8 17130.8 16144.4 16691.3 17741.9 18565.1 21410.6 20471.5 19177.9 18539.8
          18895.8 19645.6 20216 10677.1 6073.39 -4387.67 -19745.4 -10650.3 -1462.3 3217.19 10036.8 3959.82
          -14316.8 -74726.6 -28135 -7209.55 667.85 10034.7 3710.35 -15313.5 -81287 -76893.8 -16819.6 -2372.43
          11016.8 5782.31 -5915.41 -22551 -20027.2 -10102.4 -155.159 12611.5 7752.06 -2678.26 -7374.68 -1547.83
          3117.73 7115.77 15311.8 12443.3 7734.11 6023.92 8477.6 11034.1 12886.1 17140.7 15331.7 12747.3
          11772.3 12991.5 14642.4 15787 2635.99 -5496.51 -28712.8 -94594.7 -42059.6 -18634.5 -9208.26 1133.93
          -11580.5 -81326.8 -1.35544e+06 -128871 -35081.7 -15104.8 678.999 -13098.8 -87248.6 -1.37101e+06 -1.36984e+06 -92707.8
          -25687.6 1538.79 -10304.7 -45535 -139301 -109756 -90255.8 -26697.3 3024.24 -11895.3 -74774.2 -88422.5
          -32773.3 -20115.6 -6958.97 8277.67 1510.04 -13090.6 -16322.5 -5328.04 794.786 5017.2 11686.7 8162.72
          2564.53 987.732 4574.87 8001.59 10186.9 -6977.29 -18441.3 -51261.8 -145678 -80733.9 -41330.1 -25438.3
          -9375.17 -27609 -119719 -1.37059e+06 -222333 -70141.2 -35315.7 -10073 -31012.1 -135868 -1.68362e+06 -1.37136e+06
          -177131 -57756.3 -9861.1 -34729.1 -150084 -1.35666e+06 -293177 -1.36611e+06 -101636 -9916.48 -70339.8 -1.30455e+06
          -1.35279e+06 -114388 -85737.4 -28142.6 559.521 -14634.8 -75012.2 -82676.1 -26279.3 -12871 -3771.08 6349.68
          310.875 -11353.1 -14116 -5133.69 979.903 4595.58 -18724.8 -34053.2 -71375.9 -174664 -164426 -78771.2
          -47727.1 -22650.6 -48707.6 -147659 -1.36125e+06 -1.3698e+06 -142631 -60060.9 -20946.2 -47808.2 -164122 -1.37145e+06
          -1.39092e+06 -226797 -83758.1 -18065.4 -49373.3 -192765 -1.37133e+06 -1.37105e+06 -1.37002e+06 -125747 -15617.1 -82599.5
          -1.34883e+06 -1.35562e+06 -167362 -101449 -37333.9 -2875.16 -19761.9 -87314.3 -104177 -37632.6 -19106.2 -8469.4
          3804.77 -2959.61 -16529.8 -21301.9 -10499.6 -2944.34 1274.12 -34523.2 -61033.1 -96912.7 -139786 -170838
          -175137 -85165.1 -45910 -126842 -209884 -307534 -335157 -148691 -84684.7 -32357.3 -71877.9 -228079
          -1.37146e+06 -3.28557e+06 -203056 -96816.7 -20227.9 -47319.4 -163850 -1.3714e+06 -297642 -155776 -71460.2 -10802.3
          -33558.1 -138972 -1.35794e+06 -120461 -50494.4 -29025.6 -544.698 -10296 -35228.8 -84138.1 -30883.4 -14445.4
          -7413.91 4941.45 -116.02 -9404.91 -16532.8 -8715.31 -2289.61 1153.09 -51068.8 -125753 -170469 -170402
          -331088 -1.36361e+06 -187378 -103362 -1.36284e+06 -1.37119e+06 -358642 -2.78064e+06 -267182 -136711 -43330.3 -141473
          -1.37124e+06 -2.86384e+06 -1.54161e+06 -295692 -177053 -18644.7 -43521.4 -152973 -1.37113e+06 -265248 -88173.5 -69196.2
          -5294.09 -16703.2 -47610.3 -131407 -56956.2 -32500.7 -24254.2 3497.05 -2073.36 -13293.7 -26654 -16240.9
          -8473.35 -4731.84 7858.22 4511.8 -1157.9 -5545.36 -2904.4 718.586 2874.81 -35948.4 -62598.8 -100024
          -197004 -1.36848e+06 -1.36866e+06 -245977 -46954.3 -129601 -211494 -322106 -1.37126e+06 -350858 -243580 -30983.6
          -73473.8 -234543 -1.37395e+06 -2.75392e+06 -286299 -1.36428e+06 -12600 -28859.1 -73753.1 -177803 -145648 -87384.7
          -118060 -239.108 -7360.76 -22517.9 -42440.3 -35668 -25978.6 -24549.2 7332.57 3755.26 -2636.71 -8630.34
          -7199.45 -3983.12 -2287.51 10938.6 8646.73 4924.58 1955.27 2272.44 3926.22 5087.31 -21707.3 -36435.4
          -67037 -124783 -301246 -359863 -186347 -25359.1 -53657.5 -142610 -263875 -1.37141e+06 -422476 -262735
          -22469.5 -87598.9 -1.36561e+06 -1.37062e+06 -1.64407e+06 -1.37097e+06 -1.36219e+06 -7312.04 -23691 -90578.5 -130698 -133902
          -115908 -112023 3708.99 -2108.07 -14700.9 -25935.5 -27190.3 -22724.9 -20625 10363.2 7623.05 2843.52
          -1373.39 -2058.49 -611.729 469.57 13483.7 11722.7 8876.2 6458.96 5917.83 6629.98 7308.39 -12492.6
          -23242.8 -48445.9 -102184 -263701 -1.35595e+06 -198117 -13682.3 -29231.5 -73925.7 -215717 -1.37083e+06 -1.36944e+06
          -202559 -11238.2 -33115.5 -141543 -1.37124e+06 -1.67863e+06 -240631 -158956 -1742.57 -11959.9 -40073.2 -106596
          -119407 -63210.2 -48892.5 6879.23 2307.51 -6974.6 -18474.6 -21437.3 -14963.1 -11504.5 12576.6 10262.2
          6226.2 2286.39 1114.02 2433.23 3569.05 15329.6 13809.5 11323.9 9070.85 8285.43 8749.48 9313.42
          -7384.73 -17216.2 -42302.3 -98143.9 -212677 -196488 -96967.1 -7848.9 -20722.8 -61325.2 -210142 -1.3705e+06
          -242940 -97921.9 -5335.27 -18834.4 -62331.2 -214451 -1.37114e+06 -152469 -70399.7 1617.29 -6541.24 -26770.3
          -65073.2 -108860 -46729.1 -29465.5 8802.91 4598.72 -3954.57 -14885.3 -18587.3 -10501.7 -6033.46 13921
          11689.7 7720.09 3689.85 2663.07 4403.82 5824.22 16470.9 14997.8 12550 10280.5 9555.17 10135.7
          10782.4 -4968.65 -15287.6 -45535.9 -140249 -180384 -96622.5 -61635.3 -5590.86 -20664.9 -100791 -1.36964e+06
          -1.3708e+06 -156806 -65961.6 -3450.29 -18719.6 -93565.6 -974529 -1.49177e+06 -135057 -51608.2 2623.39 -6962.44
          -36882.6 -134032 -115115 -41999.7 -22566.1 9456.1 4611.55 -6567.69 -24509.8 -20493.5 -8984.64 -3446.38
          14480.8 12018.8 7366.84 2290.36 2530.45 5223.01 7053.42 17007.3 15444.4 12780.2 10289.8 9881.74
          10801.4 11625.2 -3807.49 -13351.1 -37560.8 -83353.9 -101363 -68122.8 -48217.5 -4480.35 -17620.5 -61215.5
          -205054 -233295 -92554.7 -51721.6 -3128.08 -20280.7 -113401 -1.46178e+06 -1.46585e+06 -126998 -45311.9 2330.72
          -10969.2 -85261.7 -1.36299e+06 -145725 -42190 -20335.3 9353.11 3307.57 -14465.9 -71163.9 -26897.3 -9220.78
          -2589.43 14542.1 11733.4 5909.19 -1885.32 1322.87 5267.27 7484.55 17133.4 15448 12482 9614.39
          9665.28 10950.4 11934.6
        </DataArray>
        <DataArray type="Float32" Name="saturation" NumberOfComponents="1" format="ascii">
          0.288344 0.287593 0.28642 0.28547 0.285374 0.285838 0.28626 0.288414 0.287633 0.286387 0.285335 0.285248
          0.28578 0.286252 0.288677 0.28792 0.286705 0.285652 0.285497 0.286028 0.286511 0.289193 0.28854 0.287528
          0.286697 0.286544 0.286916 0.287293 0.289875 0.289352 0.288579 0.288001 0.287911 0.288168 0.288433 0.290548
          0.290149 0.28958 0.289182 0.289135 0.289324 0.289512 0.29097 0.290643 0.290187 0.289878 0.289848 0.290003
          0.290153 0.286872 0.285837 0.284146 0.282722 0.282839 0.283724 0.284419 0.286887 0.285765 0.283838 0.282026
          0.282271 0.283414 0.284255 0.287124 0.286015 0.2841 0.282211 0.282157 0.283428 0.28437 0.287678 0.286732
          0.285206 0.283904 0.283805 0.284565 0.285268 0.288447 0.287687 0.286544 0.285756 0.285778 0.286272 0.28673
          0.289265 0.288704 0.287911 0.28742 0.28747 0.287816 0.28812 0.289794 0.289353 0.28875 0.288389 0.288434
          0.288706 0.288939 0.284056 0.282372 0.279375 0.27652 0.277465 0.279489 0.280833 0.283931 0.281969 0.278076
          0.273151 0.2753 0.278425 0.280262 0.284092 0.282107 0.278144 0.272807 0.273136 0.277513 0.279912 0.284701
          0.283022 0.280096 0.277308 0.277424 0.279309 0.281016 0.285621 0.28421 0.281965 0.280654 0.281171 0.2823
          0.283287 0.286774 0.285793 0.28439 0.283697 0.28408 0.284826 0.285422 0.287558 0.286839 0.285872 0.285404
          0.285664 0.286219 0.286646 0.280078 0.277293 0.271706 0.264948 0.26877 0.273175 0.275672 0.279677 0.276086
          0.267171 0.248964 0.261812 0.270349 0.274289 0.279675 0.275946 0.26675 0.247589 0.248501 0.266126 0.272711
          0.280292 0.277124 0.270964 0.263862 0.264837 0.269016 0.273854 0.281317 0.278283 0.272556 0.270271 0.273131
          0.275617 0.277904 0.283122 0.281207 0.278272 0.277264 0.278719 0.280303 0.281496 0.284397 0.283136 0.281406
          0.280774 0.281565 0.282666 0.283449 0.275352 0.271165 0.261609 0.245031 0.257272 0.26539 0.269422 0.274537
          0.268356 0.247581 0.203689 0.239564 0.259454 0.266838 0.274294 0.267693 0.246407 0.203577 0.203585 0.245377
          0.262693 0.274755 0.268925 0.256248 0.238153 0.242437 0.245834 0.262326 0.275565 0.268217 0.248954 0.246182
          0.260216 0.264803 0.270467 0.278598 0.274739 0.267696 0.26633 0.271247 0.274356 0.276684 0.280719 0.278529
          0.275312 0.274459 0.276433 0.278432 0.27977 0.270458 0.265467 0.254643 0.237338 0.247702 0.257492 0.262784
          0.269346 0.261999 0.24089 0.20358 0.229629 0.249975 0.259378 0.269029 0.260811 0.238606 0.201663 0.203574
          0.233763 0.252937 0.269125 0.259569 0.236794 0.20368 0.224733 0.203612 0.243787 0.2691 0.24993 0.20407
          0.203708 0.241703 0.246701 0.26181 0.274231 0.267036 0.248903 0.247309 0.262477 0.267791 0.27201 0.277454
          0.274099 0.268457 0.267256 0.271341 0.274455 0.276445 0.265354 0.259791 0.249699 0.23402 0.235125 0.248107
          0.255622 0.263824 0.255347 0.237091 0.203647 0.203585 0.237723 0.252358 0.264478 0.255599 0.235159 0.203574
          0.203436 0.229271 0.247092 0.265619 0.255162 0.232218 0.203575 0.203577 0.203584 0.240007 0.266623 0.247324
          0.203737 0.203688 0.234801 0.24382 0.258731 0.272457 0.264942 0.246395 0.243356 0.258636 0.265202 0.269761
          0.275999 0.272415 0.266245 0.26434 0.268837 0.272422 0.274612 0.259636 0.252118 0.244614 0.23809 0.234425
          0.23397 0.246814 0.25614 0.239851 0.230671 0.22391 0.222449 0.236964 0.246908 0.260355 0.249587 0.22917
          0.203574 0.196678 0.231271 0.244631 0.264758 0.255738 0.235189 0.203574 0.224472 0.236114 0.24968 0.268702
          0.259955 0.238196 0.203671 0.240779 0.254853 0.261499 0.27365 0.268929 0.259406 0.247017 0.260855 0.267116
          0.270253 0.276641 0.273874 0.269332 0.266244 0.269648 0.272753 0.274547 0.254696 0.240006 0.234464 0.234472
          0.222655 0.20363 0.232735 0.243493 0.203635 0.203576 0.22132 0.19776 0.226354 0.238494 0.256893 0.237871
          0.203575 0.197561 0.20246 0.224586 0.233771 0.265386 0.256837 0.236446 0.203576 0.226482 0.246229 0.250189
          0.271263 0.266173 0.255655 0.239212 0.253141 0.260307 0.263221 0.275827 0.272863 0.267609 0.262342 0.266364
          0.269759 0.271537 0.278346 0.276397 0.273332 0.271142 0.272442 0.274315 0.275483 0.259173 0.251736 0.244066
          0.231822 0.203595 0.203594 0.227818 0.255841 0.239462 0.230533 0.22312 0.203575 0.221684 0.227992 0.260821
          0.249236 0.228668 0.203556 0.197825 0.225145 0.203625 0.267909 0.261557 0.249175 0.233694 0.237341 0.246381
          0.241139 0.27381 0.270278 0.263874 0.257158 0.259264 0.262587 0.263111 0.278033 0.275972 0.272577 0.269687
          0.270354 0.271905 0.272754 0.280243 0.278822 0.276632 0.27498 0.275153 0.276067 0.276724 0.264184 0.259017
          0.250684 0.240145 0.224265 0.221263 0.232836 0.262813 0.254001 0.237726 0.226573 0.203574 0.218667 0.226649
          0.263893 0.24634 0.203616 0.20358 0.201874 0.203577 0.20364 0.270301 0.263431 0.245773 0.239309 0.238871
          0.241468 0.242075 0.275946 0.272845 0.267008 0.262602 0.262149 0.263795 0.264603 0.27988 0.278205 0.275466
          0.273221 0.27287 0.273615 0.274183 0.28189 0.280742 0.278961 0.277518 0.277203 0.277618 0.278018 0.267956
          0.2636 0.25542 0.243694 0.226585 0.203685 0.231719 0.267442 0.261427 0.249138 0.230175 0.203578 0.203588
          0.231316 0.268508 0.260102 0.237862 0.203575 0.201689 0.22821 0.235744 0.273031 0.268189 0.257876 0.242952
          0.240936 0.251588 0.255295 0.277764 0.275172 0.27046 0.265454 0.264288 0.266897 0.26839 0.281294 0.279817
          0.277382 0.27516 0.274527 0.27524 0.275868 0.283134 0.282107 0.280487 0.27908 0.278603 0.278884 0.279229
          0.270266 0.265963 0.257199 0.244395 0.230432 0.23187 0.244604 0.270049 0.264565 0.252046 0.230649 0.20358
          0.228039 0.244435 0.271243 0.26531 0.251801 0.230281 0.203576 0.236506 0.249917 0.274797 0.270665 0.2623
          0.251144 0.242582 0.255905 0.261345 0.278917 0.276446 0.271919 0.26693 0.265409 0.268836 0.270907 0.282181
          0.280721 0.278263 0.275935 0.275366 0.276336 0.277148 0.283925 0.282907 0.281277 0.279829 0.279378 0.279738
          0.280144 0.271421 0.266761 0.256248 0.23803 0.23343 0.244666 0.25197 0.27112 0.264588 0.243933 0.203587
          0.203578 0.235993 0.250935 0.272169 0.265356 0.245219 0.207212 0.202766 0.238715 0.25455 0.275345 0.270465
          0.258874 0.238853 0.24159 0.25729 0.263856 0.279317 0.276454 0.270652 0.263126 0.264655 0.269524 0.272171
          0.282557 0.280933 0.278053 0.275162 0.275294 0.276802 0.277867 0.284303 0.283213 0.281427 0.279834 0.27958
          0.280156 0.28068 0.271992 0.267584 0.258659 0.247173 0.243834 0.250434 0.255484 0.27166 0.265799 0.252073
          0.231094 0.228764 0.245405 0.254519 0.27233 0.264738 0.241857 0.202958 0.202932 0.239828 0.256313 0.275184
          0.268627 0.246795 0.203634 0.237332 0.257233 0.264716 0.279254 0.275722 0.267107 0.249746 0.262254 0.269416
          0.272601 0.282598 0.280749 0.277198 0.272958 0.274639 0.276828 0.278123 0.284392 0.283215 0.281232 0.279415
          0.279446 0.28025 0.280878
        </DataArray>
        <DataArray type="Float32" Name="process rank" NumberOfComponents="1" format="ascii">
          0 0 0 0 0 0 0 0 0 0 0 0
          0 0 0 0 0 0 0 0 0 0 0 0
          0 0 0 0 0 0 0 0 0 0 0 0
          0 0 0 0 0 0 0 0 0 0 0 0
          0 0 0 0 0 0 0 0 0 0 0 0
          0 0 0 0 0 0 0 0 0 0 0 0
          0 0 0 0 0 0 0 0 0 0 0 0
          0 0 0 0 0 0 0 0 0 0 0 0
          0 0 0 0 0 0 0 0 0 0 0 0
          0 0 0 0 0 0 0 0 0 0 0 0
          0 0 0 0 0 0 0 0 0 0 0 0
          0 0 0 0 0 0 0 0 0 0 0 0
          0 0 0 0 0 0 0 0 0 0 0 0
          0 0 0 0 0 0 0 0 0 0 0 0
          0 0 0 0 0 0 0 0 0 0 0 0
          0 0 0 0 0 0 0 0 0 0 0 0
          0 0 0 0 0 0 0 0 0 0 0 0
          0 0 0 0 0 0 0 0 0 0 0 0
          0 0 0 0 0 0 0 0 0 0 0 0
          0 0 0 0 0 0 0 0 0 0 0 0
          0 0 0 0 0 0 0 0 0 0 0 0
          0 0 0 0 0 0 0 0 0 0 0 0
          0 0 0 0 0 0 0 0 0 0 0 0
          0 0 0 0 0 0 0 0 0 0 0 0
          0 0 0 0 0 0 0 0 0 0 0 0
          0 0 0 0 0 0 0 0 0 0 0 0
          0 0 0 0 0 0 0 0 0 0 0 0
          0 0 0 0 0 0 0 0 0 0 0 0
          0 0 0 0 0 0 0 0 0 0 0 0
          0 0 0 0 0 0 0 0 0 0 0 0
          0 0 0 0 0 0 0 0 0 0 0 0
          0 0 0 0 0 0 0 0 0 0 0 0
          0 0 0 0 0 0 0 0 0 0 0 0
          0 0 0 0 0 0 0 0 0 0 0 0
          0 0 0 0 0 0 0 0 0 0 0 0
          0 0 0 0 0 0 0 0 0 0 0 0
          0 0 0 0 0 0 0 0 0 0 0 0
          0 0 0 0 0 0 0 0 0 0 0 0
          0 0 0 0 0 0 0 0 0 0 0 0
          0 0 0 0 0 0 0 0 0 0 0 0
          0 0 0 0 0 0 0 0 0 0 0 0
          0 0 0 0 0 0 0 0 0 0 0 0
          0 0 0 0 0 0 0 0 0 0 0 0
          0 0 0 0 0 0 0 0 0 0 0 0
          0 0 0 0 0 0 0 0 0 0 0 0
          0 0 0 0 0 0 0 0 0 0 0 0
          0 0 0 0 0 0 0 0 0 0 0 0
          0 0 0 0 0 0 0 0 0 0 0 0
          0 0 0 0 0 0 0 0 0 0 0 0
          0 0 0 0 0 0 0 0 0 0 0 0
          0 0 0 0 0 0 0 0 0 0 0 0
          0 0 0 0 0 0 0 0 0 0 0 0
          0 0 0 0 0 0 0 0 0 0 0 0
          0 0 0 0 0 0 0 0 0 0 0 0
          0 0 0 0 0 0 0 0 0 0 0 0
          0 0 0 0 0 0 0 0 0 0 0 0
          0 0 0 0 0 0 0 0 0 0 0 0
          0 0 0 0 0 0 0 0 0 0 0 0
          0 0 0 0 0 0 0 0 0 0 0 0
          0 0 0 0 0 0 0 0 0 0 0 0
          0 0 0 0 0 0 0 0 0 0 0 0
          0 0 0
        </DataArray>
      </CellData>
      <Points>
        <DataArray type="Float32" Name="Coordinates" NumberOfComponents="3" format="ascii">
          -0.04 -0.04 -0.15 -0.0285714 -0.04 -0.15 -0.04 -0.0285714 -0.15 -0.0285714 -0.0285714 -0.15
          -0.04 -0.04 -0.14 -0.0285714 -0.04 -0.14 -0.04 -0.0285714 -0.14 -0.0285714 -0.0285714 -0.14
          -0.0171429 -0.04 -0.15 -0.0171429 -0.0285714 -0.15 -0.0171429 -0.04 -0.14 -0.0171429 -0.0285714 -0.14
          -0.00571429 -0.04 -0.15 -0.00571429 -0.0285714 -0.15 -0.00571429 -0.04 -0.14 -0.00571429 -0.0285714 -0.14
          0.00571429 -0.04 -0.15 0.00571429 -0.0285714 -0.15 0.00571429 -0.04 -0.14 0.00571429 -0.0285714 -0.14
          0.0171429 -0.04 -0.15 0.0171429 -0.0285714 -0.15 0.0171429 -0.04 -0.14 0.0171429 -0.0285714 -0.14
          0.0285714 -0.04 -0.15 0.0285714 -0.0285714 -0.15 0.0285714 -0.04 -0.14 0.0285714 -0.0285714 -0.14
          0.04 -0.04 -0.15 0.04 -0.0285714 -0.15 0.04 -0.04 -0.14 0.04 -0.0285714 -0.14
          -0.04 -0.0171429 -0.15 -0.0285714 -0.0171429 -0.15 -0.04 -0.0171429 -0.14 -0.0285714 -0.0171429 -0.14
          -0.0171429 -0.0171429 -0.15 -0.0171429 -0.0171429 -0.14 -0.00571429 -0.0171429 -0.15 -0.00571429 -0.0171429 -0.14
          0.00571429 -0.0171429 -0.15 0.00571429 -0.0171429 -0.14 0.0171429 -0.0171429 -0.15 0.0171429 -0.0171429 -0.14
          0.0285714 -0.0171429 -0.15 0.0285714 -0.0171429 -0.14 0.04 -0.0171429 -0.15 0.04 -0.0171429 -0.14
          -0.04 -0.00571429 -0.15 -0.0285714 -0.00571429 -0.15 -0.04 -0.00571429 -0.14 -0.0285714 -0.00571429 -0.14
          -0.0171429 -0.00571429 -0.15 -0.0171429 -0.00571429 -0.14 -0.00571429 -0.00571429 -0.15 -0.00571429 -0.00571429 -0.14
          0.00571429 -0.00571429 -0.15 0.00571429 -0.00571429 -0.14 0.0171429 -0.00571429 -0.15 0.0171429 -0.00571429 -0.14
          0.0285714 -0.00571429 -0.15 0.0285714 -0.00571429 -0.14 0.04 -0.00571429 -0.15 0.04 -0.00571429 -0.14
          -0.04 0.00571429 -0.15 -0.0285714 0.00571429 -0.15 -0.04 0.00571429 -0.14 -0.0285714 0.00571429 -0.14
          -0.0171429 0.00571429 -0.15 -0.0171429 0.00571429 -0.14 -0.00571429 0.00571429 -0.15 -0.00571429 0.00571429 -0.14
          0.00571429 0.00571429 -0.15 0.00571429 0.00571429 -0.14 0.0171429 0.00571429 -0.15 0.0171429 0.00571429 -0.14
          0.0285714 0.00571429 -0.15 0.0285714 0.00571429 -0.14 0.04 0.00571429 -0.15 0.04 0.00571429 -0.14
          -0.04 0.0171429 -0.15 -0.0285714 0.0171429 -0.15 -0.04 0.0171429 -0.14 -0.0285714 0.0171429 -0.14
          -0.0171429 0.0171429 -0.15 -0.0171429 0.0171429 -0.14 -0.00571429 0.0171429 -0.15 -0.00571429 0.0171429 -0.14
          0.00571429 0.0171429 -0.15 0.00571429 0.0171429 -0.14 0.0171429 0.0171429 -0.15 0.0171429 0.0171429 -0.14
          0.0285714 0.0171429 -0.15 0.0285714 0.0171429 -0.14 0.04 0.0171429 -0.15 0.04 0.0171429 -0.14
          -0.04 0.0285714 -0.15 -0.0285714 0.0285714 -0.15 -0.04 0.0285714 -0.14 -0.0285714 0.0285714 -0.14
          -0.0171429 0.0285714 -0.15 -0.0171429 0.0285714 -0.14 -0.00571429 0.0285714 -0.15 -0.00571429 0.0285714 -0.14
          0.00571429 0.0285714 -0.15 0.00571429 0.0285714 -0.14 0.0171429 0.0285714 -0.15 0.0171429 0.0285714 -0.14
          0.0285714 0.0285714 -0.15 0.0285714 0.0285714 -0.14 0.04 0.0285714 -0.15 0.04 0.0285714 -0.14
          -0.04 0.04 -0.15 -0.0285714 0.04 -0.15 -0.04 0.04 -0.14 -0.0285714 0.04 -0.14
          -0.0171429 0.04 -0.15 -0.0171429 0.04 -0.14 -0.00571429 0.04 -0.15 -0.00571429 0.04 -0.14
          0.00571429 0.04 -0.15 0.00571429 0.04 -0.14 0.0171429 0.04 -0.15 0.0171429 0.04 -0.14
          0.0285714 0.04 -0.15 0.0285714 0.04 -0.14 0.04 0.04 -0.15 0.04 0.04 -0.14
          -0.04 -0.04 -0.13 -0.0285714 -0.04 -0.13 -0.04 -0.0285714 -0.13 -0.0285714 -0.0285714 -0.13
          -0.0171429 -0.04 -0.13 -0.0171429 -0.0285714 -0.13 -0.00571429 -0.04 -0.13 -0.00571429 -0.0285714 -0.13
          0.00571429 -0.04 -0.13 0.00571429 -0.0285714 -0.13 0.0171429 -0.04 -0.13 0.0171429 -0.0285714 -0.13
          0.0285714 -0.04 -0.13 0.0285714 -0.0285714 -0.13 0.04 -0.04 -0.13 0.04 -0.0285714 -0.13
          -0.04 -0.0171429 -0.13 -0.0285714 -0.0171429 -0.13 -0.0171429 -0.0171429 -0.13 -0.00571429 -0.0171429 -0.13
          0.00571429 -0.0171429 -0.13 0.0171429 -0.0171429 -0.13 0.0285714 -0.0171429 -0.13 0.04 -0.0171429 -0.13
          -0.04 -0.00571429 -0.13 -0.0285714 -0.00571429 -0.13 -0.0171429 -0.00571429 -0.13 -0.00571429 -0.00571429 -0.13
          0.00571429 -0.00571429 -0.13 0.0171429 -0.00571429 -0.13 0.0285714 -0.00571429 -0.13 0.04 -0.00571429 -0.13
          -0.04 0.00571429 -0.13 -0.0285714 0.00571429 -0.13 -0.0171429 0.00571429 -0.13 -0.00571429 0.00571429 -0.13
          0.00571429 0.00571429 -0.13 0.0171429 0.00571429 -0.13 0.0285714 0.00571429 -0.13 0.04 0.00571429 -0.13
          -0.04 0.0171429 -0.13 -0.0285714 0.0171429 -0.13 -0.0171429 0.0171429 -0.13 -0.00571429 0.0171429 -0.13
          0.00571429 0.0171429 -0.13 0.0171429 0.0171429 -0.13 0.0285714 0.0171429 -0.13 0.04 0.0171429 -0.13
          -0.04 0.0285714 -0.13 -0.0285714 0.0285714 -0.13 -0.0171429 0.0285714 -0.13 -0.00571429 0.0285714 -0.13
          0.00571429 0.0285714 -0.13 0.0171429 0.0285714 -0.13 0.0285714 0.0285714 -0.13 0.04 0.0285714 -0.13
          -0.04 0.04 -0.13 -0.0285714 0.04 -0.13 -0.0171429 0.04 -0.13 -0.00571429 0.04 -0.13
          0.00571429 0.04 -0.13 0.0171429 0.04 -0.13 0.0285714 0.04 -0.13 0.04 0.04 -0.13
          -0.04 -0.04 -0.12 -0.0285714 -0.04 -0.12 -0.04 -0.0285714 -0.12 -0.0285714 -0.0285714 -0.12
          -0.0171429 -0.04 -0.12 -0.0171429 -0.0285714 -0.12 -0.00571429 -0.04 -0.12 -0.00571429 -0.0285714 -0.12
          0.00571429 -0.04 -0.12 0.00571429 -0.0285714 -0.12 0.0171429 -0.04 -0.12 0.0171429 -0.0285714 -0.12
          0.0285714 -0.04 -0.12 0.0285714 -0.0285714 -0.12 0.04 -0.04 -0.12 0.04 -0.0285714 -0.12
          -0.04 -0.0171429 -0.12 -0.0285714 -0.0171429 -0.12 -0.0171429 -0.0171429 -0.12 -0.00571429 -0.0171429 -0.12
          0.00571429 -0.0171429 -0.12 0.0171429 -0.0171429 -0.12 0.0285714 -0.0171429 -0.12 0.04 -0.0171429 -0.12
          -0.04 -0.00571429 -0.12 -0.0285714 -0.00571429 -0.12 -0.0171429 -0.00571429 -0.12 -0.00571429 -0.00571429 -0.12
          0.00571429 -0.00571429 -0.12 0.0171429 -0.00571429 -0.12 0.0285714 -0.00571429 -0.12 0.04 -0.00571429 -0.12
          -0.04 0.00571429 -0.12 -0.0285714 0.00571429 -0.12 -0.0171429 0.00571429 -0.12 -0.00571429 0.00571429 -0.12
          0.00571429 0.00571429 -0.12 0.0171429 0.00571429 -0.12 0.0285714 0.00571429 -0.12 0.04 0.00571429 -0.12
          -0.04 0.0171429 -0.12 -0.0285714 0.0171429 -0.12 -0.0171429 0.0171429 -0.12 -0.00571429 0.0171429 -0.12
          0.00571429 0.0171429 -0.12 0.0171429 0.0171429 -0.12 0.0285714 0.0171429 -0.12 0.04 0.0171429 -0.12
          -0.04 0.0285714 -0.12 -0.0285714 0.0285714 -0.12 -0.0171429 0.0285714 -0.12 -0.00571429 0.0285714 -0.12
          0.00571429 0.0285714 -0.12 0.0171429 0.0285714 -0.12 0.0285714 0.0285714 -0.12 0.04 0.0285714 -0.12
          -0.04 0.04 -0.12 -0.0285714 0.04 -0.12 -0.0171429 0.04 -0.12 -0.00571429 0.04 -0.12
          0.00571429 0.04 -0.12 0.0171429 0.04 -0.12 0.0285714 0.04 -0.12 0.04 0.04 -0.12
          -0.04 -0.04 -0.11 -0.0285714 -0.04 -0.11 -0.04 -0.0285714 -0.11 -0.0285714 -0.0285714 -0.11
          -0.0171429 -0.04 -0.11 -0.0171429 -0.0285714 -0.11 -0.00571429 -0.04 -0.11 -0.00571429 -0.0285714 -0.11
          0.00571429 -0.04 -0.11 0.00571429 -0.0285714 -0.11 0.0171429 -0.04 -0.11 0.0171429 -0.0285714 -0.11
          0.0285714 -0.04 -0.11 0.0285714 -0.0285714 -0.11 0.04 -0.04 -0.11 0.04 -0.0285714 -0.11
          -0.04 -0.0171429 -0.11 -0.0285714 -0.0171429 -0.11 -0.0171429 -0.0171429 -0.11 -0.00571429 -0.0171429 -0.11
          0.00571429 -0.0171429 -0.11 0.0171429 -0.0171429 -0.11 0.0285714 -0.0171429 -0.11 0.04 -0.0171429 -0.11
          -0.04 -0.00571429 -0.11 -0.0285714 -0.00571429 -0.11 -0.0171429 -0.00571429 -0.11 -0.00571429 -0.00571429 -0.11
          0.00571429 -0.00571429 -0.11 0.0171429 -0.00571429 -0.11 0.0285714 -0.00571429 -0.11 0.04 -0.00571429 -0.11
          -0.04 0.00571429 -0.11 -0.0285714 0.00571429 -0.11 -0.0171429 0.00571429 -0.11 -0.00571429 0.00571429 -0.11
          0.00571429 0.00571429 -0.11 0.0171429 0.00571429 -0.11 0.0285714 0.00571429 -0.11 0.04 0.00571429 -0.11
          -0.04 0.0171429 -0.11 -0.0285714 0.0171429 -0.11 -0.0171429 0.0171429 -0.11 -0.00571429 0.0171429 -0.11
          0.00571429 0.0171429 -0.11 0.0171429 0.0171429 -0.11 0.0285714 0.0171429 -0.11 0.04 0.0171429 -0.11
          -0.04 0.0285714 -0.11 -0.0285714 0.0285714 -0.11 -0.0171429 0.0285714 -0.11 -0.00571429 0.0285714 -0.11
          0.00571429 0.0285714 -0.11 0.0171429 0.0285714 -0.11 0.0285714 0.0285714 -0.11 0.04 0.0285714 -0.11
          -0.04 0.04 -0.11 -0.0285714 0.04 -0.11 -0.0171429 0.04 -0.11 -0.00571429 0.04 -0.11
          0.00571429 0.04 -0.11 0.0171429 0.04 -0.11 0.0285714 0.04 -0.11 0.04 0.04 -0.11
          -0.04 -0.04 -0.1 -0.0285714 -0.04 -0.1 -0.04 -0.0285714 -0.1 -0.0285714 -0.0285714 -0.1
          -0.0171429 -0.04 -0.1 -0.0171429 -0.0285714 -0.1 -0.00571429 -0.04 -0.1 -0.00571429 -0.0285714 -0.1
          0.00571429 -0.04 -0.1 0.00571429 -0.0285714 -0.1 0.0171429 -0.04 -0.1 0.0171429 -0.0285714 -0.1
          0.0285714 -0.04 -0.1 0.0285714 -0.0285714 -0.1 0.04 -0.04 -0.1 0.04 -0.0285714 -0.1
          -0.04 -0.0171429 -0.1 -0.0285714 -0.0171429 -0.1 -0.0171429 -0.0171429 -0.1 -0.00571429 -0.0171429 -0.1
          0.00571429 -0.0171429 -0.1 0.0171429 -0.0171429 -0.1 0.0285714 -0.0171429 -0.1 0.04 -0.0171429 -0.1
          -0.04 -0.00571429 -0.1 -0.0285714 -0.00571429 -0.1 -0.0171429 -0.00571429 -0.1 -0.00571429 -0.00571429 -0.1
          0.00571429 -0.00571429 -0.1 0.0171429 -0.00571429 -0.1 0.0285714 -0.00571429 -0.1 0.04 -0.00571429 -0.1
          -0.04 0.00571429 -0.1 -0.0285714 0.00571429 -0.1 -0.0171429 0.00571429 -0.1 -0.00571429 0.00571429 -0.1
          0.00571429 0.00571429 -0.1 0.0171429 0.00571429 -0.1 0.0285714 0.00571429 -0.1 0.04 0.00571429 -0.1
          -0.04 0.0171429 -0.1 -0.0285714 0.0171429 -0.1 -0.0171429 0.0171429 -0.1 -0.00571429 0.0171429 -0.1
          0.00571429 0.0171429 -0.1 0.0171429 0.0171429 -0.1 0.0285714 0.0171429 -0.1 0.04 0.0171429 -0.1
          -0.04 0.0285714 -0.1 -0.0285714 0.0285714 -0.1 -0.0171429 0.0285714 -0.1 -0.00571429 0.0285714 -0.1
          0.00571429 0.0285714 -0.1 0.0171429 0.0285714 -0.1 0.0285714 0.0285714 -0.1 0.04 0.0285714 -0.1
          -0.04 0.04 -0.1 -0.0285714 0.04 -0.1 -0.0171429 0.04 -0.1 -0.00571429 0.04 -0.1
          0.00571429 0.04 -0.1 0.0171429 0.04 -0.1 0.0285714 0.04 -0.1 0.04 0.04 -0.1
          -0.04 -0.04 -0.09 -0.0285714 -0.04 -0.09 -0.04 -0.0285714 -0.09 -0.0285714 -0.0285714 -0.09
          -0.0171429 -0.04 -0.09 -0.0171429 -0.0285714 -0.09 -0.00571429 -0.04 -0.09 -0.00571429 -0.0285714 -0.09
          0.00571429 -0.04 -0.09 0.00571429 -0.0285714 -0.09 0.0171429 -0.04 -0.09 0.0171429 -0.0285714 -0.09
          0.0285714 -0.04 -0.09 0.0285714 -0.0285714 -0.09 0.04 -0.04 -0.09 0.04 -0.0285714 -0.09
          -0.04 -0.0171429 -0.09 -0.0285714 -0.0171429 -0.09 -0.0171429 -0.0171429 -0.09 -0.00571429 -0.0171429 -0.09
          0.00571429 -0.0171429 -0.09 0.0171429 -0.0171429 -0.09 0.0285714 -0.0171429 -0.09 0.04 -0.0171429 -0.09
          -0.04 -0.00571429 -0.09 -0.0285714 -0.00571429 -0.09 -0.0171429 -0.00571429 -0.09 -0.00571429 -0.00571429 -0.09
          0.00571429 -0.00571429 -0.09 0.0171429 -0.00571429 -0.09 0.0285714 -0.00571429 -0.09 0.04 -0.00571429 -0.09
          -0.04 0.00571429 -0.09 -0.0285714 0.00571429 -0.09 -0.0171429 0.00571429 -0.09 -0.00571429 0.00571429 -0.09
          0.00571429 0.00571429 -0.09 0.0171429 0.00571429 -0.09 0.0285714 0.00571429 -0.09 0.04 0.00571429 -0.09
          -0.04 0.0171429 -0.09 -0.0285714 0.0171429 -0.09 -0.0171429 0.0171429 -0.09 -0.00571429 0.0171429 -0.09
          0.00571429 0.0171429 -0.09 0.0171429 0.0171429 -0.09 0.0285714 0.0171429 -0.09 0.04 0.0171429 -0.09
          -0.04 0.0285714 -0.09 -0.0285714 0.0285714 -0.09 -0.0171429 0.0285714 -0.09 -0.00571429 0.0285714 -0.09
          0.00571429 0.0285714 -0.09 0.0171429 0.0285714 -0.09 0.0285714 0.0285714 -0.09 0.04 0.0285714 -0.09
          -0.04 0.04 -0.09 -0.0285714 0.04 -0.09 -0.0171429 0.04 -0.09 -0.00571429 0.04 -0.09
          0.00571429 0.04 -0.09 0.0171429 0.04 -0.09 0.0285714 0.04 -0.09 0.04 0.04 -0.09
          -0.04 -0.04 -0.08 -0.0285714 -0.04 -0.08 -0.04 -0.0285714 -0.08 -0.0285714 -0.0285714 -0.08
          -0.0171429 -0.04 -0.08 -0.0171429 -0.0285714 -0.08 -0.00571429 -0.04 -0.08 -0.00571429 -0.0285714 -0.08
          0.00571429 -0.04 -0.08 0.00571429 -0.0285714 -0.08 0.0171429 -0.04 -0.08 0.0171429 -0.0285714 -0.08
          0.0285714 -0.04 -0.08 0.0285714 -0.0285714 -0.08 0.04 -0.04 -0.08 0.04 -0.0285714 -0.08
          -0.04 -0.0171429 -0.08 -0.0285714 -0.0171429 -0.08 -0.0171429 -0.0171429 -0.08 -0.00571429 -0.0171429 -0.08
          0.00571429 -0.0171429 -0.08 0.0171429 -0.0171429 -0.08 0.0285714 -0.0171429 -0.08 0.04 -0.0171429 -0.08
          -0.04 -0.00571429 -0.08 -0.0285714 -0.00571429 -0.08 -0.0171429 -0.00571429 -0.08 -0.00571429 -0.00571429 -0.08