<?xml version="1.0"?>
<VTKFile type="UnstructuredGrid" version="0.1" byte_order="LittleEndian">
  <UnstructuredGrid>
    <Piece NumberOfCells="1900" NumberOfPoints="2420">
      <CellData Scalars="p (Pa)">
        <DataArray type="Float32" Name="p (Pa)" NumberOfComponents="1" format="ascii">
          91614.4 91610.1 91602 91592.1 91583.8 91581.2 91585.2 91592.8 91599.9 91604 91613 91607.9
          91598.2 91585.8 91575 91571 91575.6 91584.6 91593 91597.9 91611.1 91604.9 91592.9 91577.1
          91562.4 91556 91561.1 91571.8 91581.8 91587.6 91609.7 91602.9 91589.5 91571.6 91554.4 91545.7
          91550.5 91561.1 91571.2 91577.3 91609.5 91602.7 91589.7 91572.6 91556.8 91548.9 91551.7 91559.4
          91567.1 91572.2 91610.4 91604.3 91592.9 91578.5 91566.1 91560.7 91562.6 91567.3 91572.1 91575.6
          91612.2 91607.3 91598.2 91587.3 91578.7 91575.9 91577.7 91581 91583.9 91586 91614.6 91611
          91604.5 91597.1 91591.8 91590.7 91592.5 91595 91596.9 91598.1 91616.9 91614.5 91610.2 91605.5
          91602.4 91602.1 91603.8 91605.6 91607 91607.8 91618.3 91616.5 91613.4 91610.1 91608.1 91608.2
          91609.6 91611.2 91612.3 91612.9 91530.7 91523 91508.5 91490.2 91474.9 91470.6 91478.9 91493.1
          91505.9 91513.2 91528.2 91519 91501.1 91477.8 91456.9 91449.5 91459.8 91477.4 91493 91501.8
          91524.8 91513.4 91490.9 91460.2 91430.1 91416.4 91429.5 91451.9 91471.1 91482.2 91522.3 91509.6
          91484.4 91449.1 91412.5 91391.5 91406 91429.4 91449.1 91461.3 91521.7 91509.2 91484.7 91451.5
          91419 91402.2 91410 91424.9 91439 91449.5 91522.9 91511.6 91489.8 91461.7 91436.9 91427.5
          91432.6 91440.8 91448.4 91455.5 91525.9 91516.5 91498.9 91477.4 91460.3 91456.8 91461.8 91467.5
          91472 91476 91530.2 91523.3 91510.7 91496.2 91485.9 91485.2 91489.8 91494.3 91497.5 91499.8
          91534.5 91529.8 91521.5 91512.4 91506.6 91507 91510.7 91514.3 91516.7 91518.1 91537.1 91533.7
          91527.8 91521.6 91518 91518.6 91521.6 91524.6 91526.6 91527.7 91438.5 91422.5 91391.6 91351.8
          91318.1 91310 91330.8 91362.4 91389.3 91404.3 91433.2 91413.6 91374.8 91321.8 91272.1 91255.9
          91284.7 91326.6 91360.8 91379.8 91425.9 91401.5 91351.3 91278.1 91198.8 91160 91205.9 91265.1
          91310 91335.3 91420.7 91393.4 91336.8 91251.2 91148 91068.4 91136 91204.8 91253.2 91283.7
          91419.1 91392.1 91337.4 91258.8 91174.3 91125.6 91155.3 91189.5 91220.2 91249.9 91420.7 91395.7
          91346.1 91278.5 91215.2 91198.2 91215.7 91230.6 91241.9 91262.2 91426.2 91405 91364.1 91311.1
          91267.8 91267.8 91285 91296.4 91302.7 91313.1 91435.2 91419.6 91390.5 91355.5 91330.9 91334.2
          91348.4 91358.5 91364 91369.3 91444.5 91434 91415.2 91394.1 91381.2 91384.4 91394.6 91403
          91407.8 91410.9 91450.3 91442.7 91429.6 91415.6 91407.9 91410.6 91418.5 91425.3 91429.5 91431.7
          91334 91302.1 91238.6 91153.2 91078.1 91065.5 91117.5 91186.3 91240.9 91270.5 91323.3 91283.3
          91200.5 91079.5 90955.2 90921.5 91007 91107.2 91180.4 91220 91308.5 91257.5 91146.5 90965.4
          90728.6 90600.6 90790.6 90958 91063.1 91121.7 91298.2 91241.1 91115.5 90900 90558.7 90046.4
          90540.8 90782.7 90908 90992.5 91294.3 91237.9 91117.9 90928.6 90689.3 90513.4 90647.9 90711.9
          90777.3 90887.5 91295.4 91241.5 91128.6 90957.1 90768.8 90761.4 90828.5 90842 90831.9 90913.1
          91304.6 91257.7 91161.8 91023.2 90889.1 90934.1 90997.4 91017.6 91016.5 91049.9 91322.9 91288.5
          91221.8 91135.8 91070.9 91097.7 91141.9 91164.3 91171.5 91185.4 91342.5 91319.9 91278.3 91230.1
          91200.4 91214.7 91242.5 91261.1 91270.1 91277.2 91354.6 91338.8 91310.7 91280.4 91264.2 91273.4
          91292.7 91307.8 91316.2 91320.9 91214.6 91156 91034.5 90858.5 90690.8 90682.9 90809.2 90949.8
          91052.4 91106.9 91194.4 91118.6 90951.1 90674.4 90333 90290.7 90554.7 90787 90934.1 91011.9
          91166.7 91066.7 90827.3 90349.1 89389.6 88937.8 89936.7 90433.5 90672.8 90808.3 91148 91036.7
          90767.2 90198.8 88728.9 81748.7 88735.3 89867.6 90213.7 90486.1 91139.7 91030.2 90779.8 90324.4
          89576.5 88698.4 89480.4 89316.4 89446 90119.9 91136.8 91026.8 90773.7 90296.8 89452.3 89800.1
          90091.9 89993 89618.8 90172.9 91149.7 91050 90825.4 90418.9 89754.3 90250.6 90507.7 90530.8
          90450.5 90590.9 91184.5 91113 90965.1 90748.2 90543.2 90693.6 90832.3 90879.2 90877.9 90919.3
          91223.1 91177.9 91091.7 90984.7 90914.1 90968.3 91040.1 91079.4 91094 91110.3 91246.9 91216.2
          91160.8 91099.1 91066.8 91093.9 91138.1 91168.8 91184.4 91194 91080.9 90984.7 90772.8 90427.4
          90034.6 90092.7 90381.3 90645.5 90822.6 90914.9 91046.3 90915.8 90596.7 89945.5 88698.7 88948.9
          89820 90339.9 90614 90758.1 90999.2 90816.9 90298.5 88725.1 80437.1 80001.2 87856.1 89527
          90054 90375.7 90969.7 90768.8 90196.1 88394.8 77589.1 -1.36038e+06 77719.7 87397.5 88456.7 89588.2
          90954.1 90759.2 90265.4 89175 86656 78955.2 86403.9 79783.6 80176.8 88064.6 90938.5 90726.3
          90153.4 88502.2 80190.7 87217 88674.2 87659.8 80831 88181 90950.3 90744.5 90195.6 88660.5
          81209.7 88464.5 89669.4 89644.5 88953.6 89763.4 91013.3 90873.1 90553.5 89975.1 89061.8 89953.9
          90385.9 90479 90417.8 90557.8 91084 91001.1 90834.1 90604 90422.8 90613.2 90786.2 90862.8
          90882.2 90920.1 91126.7 91073.2 90973.5 90857.5 90796.5 90868 90959.5 91016 91042.3 91060.5
          90938.1 90801.2 90481.6 89875.6 88862.9 89286.4 89836.5 90274.3 90555.9 90701.5 90885.7 90689.1
          90142.8 88534.3 80272.1 86923.5 88622.1 89769.4 90244.2 90490.5 90814.7 90516 89336.7 80389.3
          -1.35645e+06 71271.9 79205.5 87829.1 89065.6 89893.4 90777.1 90455.6 89212.2 79886.7 -1.34386e+06 -1.36464e+06
          -1.36188e+06 75684.5 80109.8 88084.5 90752.5 90445.6 89555.3 86951.8 74280.6 66290.9 73200.6 -1.34899e+06
          -1.34877e+06 78672.6 90710 90327.7 88941.5 79556.3 -1.34224e+06 76067.1 85879.1 76423.7 -1.33457e+06 79168.4
          90704.9 90273.1 88616.2 78082.8 -1.35216e+06 79629.2 88262.7 88020.6 81364.9 88429 90814.4 90555.2
          89863.4 88081.5 80972 88519.2 89844.7 90024.7 89710.9 90200.1 90933.3 90796.1 90497.2 90016.4
          89495.8 90162.2 90524.3 90658.2 90681.6 90759.3 91001.9 90919.5 90760.4 90565.2 90466.4 90626.1
          90786.2 90876.9 90917.7 90947.5 90787.4 90622.7 90250.8 89560.4 88284.4 88172 89221.8 89790.8
          90231.3 90454 90716.2 90477.9 89842.6 88037.2 78670.1 78485.1 87514.9 89267.8 89959.1 90268.2
          90626.9 90268.2 88931.6 79350.4 -1.35933e+06 -1.33902e+06 77122.5 87242.7 89114.7 89779.5 90597.7 90242.4
          89187.2 85995.4 69418.8 -1.36505e+06 58861.2 76419.4 86631.6 88758.3 90569.6 90184.4 89069.9 85827.8
          70512.3 59858.3 67926.6 -1.36378e+06 74140 86785.1 90500.3 89942.5 87793 74786.3 -1.36515e+06 70773.9
          84162.2 76758.8 78632.1 87454.8 90450.4 89482.3 80784.3 -1.34868e+06 -1.36055e+06 77715.3 87642.7 88097
          88275.4 89379.5 90627.6 90197.8 88637.3 80093.9 78953.2 87929.5 89591.3 89964 90085.7 90308.7
          90799.3 90606.4 90141.1 89197.7 88989.5 89911.5 90374.6 90571.2 90657.5 90726.1 90892 90786
          90574.3 90307.4 90246.3 90468 90670.9 90790.5 90852.1 90886.4 90607.3 90408.8 90012.5 89462.6
          88689.1 87831.1 88439.3 88540.9 89608.6 90056.6 90498.7 90196 89520 88501.6 86297.9 77946.4
          86628.6 88472.4 89489 89941.7 90372 89893.8 88500.3 86121.2 73264.9 -1.36011e+06 73689.2 86218.2
          88773.8 89578 90390.4 89965.5 88830.4 86034.1 70972.7 -1.36616e+06 -1.36548e+06 74061.1 87009.3 88989.7
          90414.7 89963.3 88398 78119.9 -1.36347e+06 -1.3678e+06 -1.36543e+06 -1.35944e+06 79060.5 88196.9 90386.5 89795.3
          87482 73500.9 -1.36625e+06 58888.2 75592.5 78811.2 87426.8 89121.2 90360.4 89373.6 80557 -1.35485e+06
          -1.3619e+06 77500.2 87295.8 88572.7 89501.1 89949.9 90550.6 90119.5 88563.1 80134.1 79668 87973.6
          89571.1 90056.6 90313.8 90464.4 90726.9 90536.2 90080.5 89179.8 89082.1 89902.3 90342.4 90560.2
          90676.1 90738.3 90820.5 90717.2 90513.1 90263.9 90226.3 90430.8 90624.7 90749 90819 90853.6
          90383.3 90089.7 89516.2 88995.9 88490.4 87918.2 86547.3 78961.9 87748.1 89283.8 90179.6 89606.3
          88085.8 87050.7 86165.8 85565.9 85154.1 85994.8 88395 89311.9 89914 88559.1 79913.4 76359.8
          73506 70268.2 69665.4 76875 87281.4 89001.4 90106.9 89433.7 87511.3 84833.9 71547.5 -1.36495e+06
          -1.36562e+06 75124.5 87197 88980.1 90290 89837.5 88596.1 85419 68435.4 -1.36691e+06 59998.9 77562.4
          87517 89168.3 90376.2 89930.6 88361.6 78186.2 -1.3629e+06 -1.35061e+06 78085.6 87248.8 89130.1 89751.9
          90441.5 89994.1 88381.6 79591.5 75883.6 79391.9 87949.9 89417.3 89988.8 90242.1 90584.3 90328.9
          89684.5 88327.3 87931.6 88779.2 89790.3 90227.8 90453.8 90563.7 90714.4 90584.8 90317 89959.3
          89878.6 90123.9 90406.7 90588.1 90693.1 90744.5 90785.4 90710.3 90571.4 90422.2 90391.3 90496.4
          90631.3 90732.1 90793.6 90823.3 90199.7 89763.9 88676 87963.7 87352.6 86703.2 76072.2 -1.34538e+06
          77971.7 87704 89854.6 88539 80143.5 77951 76690.1 84237.7 73388.8 71288.9 85471.3 88048.3
          89175.5 81053.8 -1.35065e+06 -1.3632e+06 -1.34689e+06 66649.5 -1.36578e+06 -1.3545e+06 77738.1 87122.5 89805.4 88403
          79477.4 74302.8 57732.5 -1.36541e+06 -1.36543e+06 73650.5 86218.8 88394.1 90190.6 89695.3 88305.5 85913.7
          73106.1 -1.36432e+06 74364.5 86287.6 88465.4 89277.8 90387.6 90074.9 89277.1 87286 77874.2 76065.4
          86795.5 88842.6 89582.5 89926 90509.5 90277.5 89717.6 88563.1 87581.6 87833.9 89227.3 89863.7
          90187.3 90345.6 90622.8 90483 90191.5 89784.3 89588.5 89746.2 90111.6 90366.2 90518 90593.8
          90711.4 90635.4 90493 90332.1 90275.3 90355.3 90497.9 90614.2 90688.9 90726 90758.4 90712.5
          90631.9 90550.8 90527.1 90573.4 90650.1 90716.6 90760.4 90781.9 90241.8 89946.7 89360.6 88725.8
          87504.7 86266.4 73746.1 -1.36527e+06 74992.4 86568 90024.4 89437.1 87869.3 86374.2 77395.9 83381.6
          67081.3 -1.36356e+06 74275.8 85437.3 89732 88313.7 79304.6 72901.8 -1.34658e+06 67047.9 59576.8 66596.2
          66445.5 76588.5 89927.4 89170.5 86738.8 75722.8 -1.36482e+06 -1.3652e+06 68777.2 83227.2 77184.3 86183.2
          90183.8 89763.6 88700.4 86233.7 75967.9 73219.5 85000.6 87424.1 87504.3 88729.2 90383.7 90134
          89567.9 88564.8 87008.6 86878.2 88422.2 89188.9 89483.2 89797.7 90523.1 90371.4 90054.9 89597.3
          89245 89308.1 89710.9 90017.9 90194.2 90311.7 90622.9 90538.2 90376.3 90181.6 90075.3 90124.9
          90279.6 90418.6 90510.7 90563 90687.6 90643.2 90563.5 90478.8 90441.6 90471.8 90542.2 90609.2
          90655.8 90680.6 90719.1 90692.9 90647.8 90603.3 90586.8 90606.6 90646.6 90685.2 90712.3 90726.2
          90333.5 90148.2 89790.5 89298.6 88470.7 86482.9 75210.1 70862.8 84712.2 86774.8 90203 89898
          89246.5 88311.7 86204.1 76307.3 -1.36453e+06 -1.36563e+06 70584.9 76416.2 90025.9 89472.5 87904.1 85327.8
          74664.6 61121 -1.3687e+06 56400.6 -1.36462e+06 -1.35722e+06 90004.5 89351.2 87046.4 75515.2 58340.7 -1.36604e+06
          -1.36073e+06 69505.2 -1.36232e+06 74231.9 90132.9 89603.6 87753.1 78049.9 74586.8 75466.4 77254.7 85555.5
          79157.5 87192.3 90327.4 90041.7 89309.9 87719.8 86966.1 87472.6 88078.4 88865 88783.3 89469.6
          90482.9 90341.1 90038.4 89598.9 89397.2 89541.2 89761.4 89970.3 90073.2 90205 90583.3 90516.6
          90389.4 90239.8 90172.8 90217.1 90307 90394.3 90453.8 90497.4 90639.2 90608.7 90554.3 90496.8
          90472 90490 90530 90570.3 90599.7 90617.4 90663.3 90647.3 90619.6 90592.1 90580.9 90590.8
          90612.6 90634.7 90651 90659.8 90381.9 90248.6 89973.6 89541.6 88962.5 87970.7 85545.6 84489.6
          87150.8 88152.4 90285.4 90060.8 89530.6 88417.8 87278.6 85210.3 71963.6 70187.6 83953.9 86105.4
          90124.2 89657.8 88018.3 79039.9 75235.1 69663.8 -1.36702e+06 56417.1 67886.7 75480.4 89985.3 88962.5
          79837.7 -1.35656e+06 -1.36655e+06 -1.36633e+06 -1.36524e+06 -1.36493e+06 -1.3593e+06 76737.9 90041.6 89075.9 80325.6 -1.31761e+06
          -1.35608e+06 72636.7 76077.8 77770.2 78955.5 87292.9 90253.5 89869.6 88454.2 80309.5 79382.5 87014.4
          87842.9 88356.7 88688.5 89437.3 90422.9 90266.8 89885.9 89096.9 88923.7 89480.7 89718.7 89893.9
          90019.1 90156.3 90524.8 90462.2 90336 90172.4 90121.1 90197.8 90276 90345.6 90398.6 90439
          90576.4 90551.6 90506.3 90456.7 90438.2 90456.1 90485.5 90514.5 90536.9 90551.3 90596.7 90585.4
          90565.6 90545.4 90537.3 90544.1 90558 90572.2 90583.2 90589.5 90392.4 90296.9 90092.1 89751.7
          89230.9 88385.1 86155.1 77423.9 87034 88700.2 90326 90172 89818.4 89153 87904.6 86003
          73118.9 -1.36181e+06 78133.1 87561.7 90213.7 89929.5 89156.7 87052.5 77771 70985.1 -1.3631e+06 -1.36523e+06
          75979.7 86494.2 90114.8 89640.4 87814.7 76250.8 -1.36305e+06 -1.36478e+06 -1.36408e+06 69520 77833.1 86973.2
          90138.9 89688.3 88027.9 78965.7 74170.8 75726.2 77059.5 86015.7 87498.8 88816.4 90269.9 90023.9
          89379.4 87957.5 87297.5 87640.7 88070.8 88999.4 89421.4 89744.2 90392.7 90279 90032.7 89673.3
          89515.7 89607 89752.1 89953.7 90096.5 90196.5 90471 90423.7 90331.6 90221.3 90171.6 90196.1
          90249.5 90315.6 90368.8 90403.4 90510.7 90492.4 90458.9 90422.2 90405.2 90412.9 90433.2 90457.5
          90477.4 90489.7 90526 90518.2 90504.1 90489.5 90482.6 90485.9 90495 90505.6 90514.2 90519.2
          90371.3 90301.4 90143.7 89864 89407.3 88658.6 87340.6 87017.8 88673.8 89353.8 90328.7 90221.6
          89972.5 89502.8 88630.5 86612.9 77077.2 77867.9 87384.4 88976.9 90259.2 90082.6 89639.7 88663.6
          86125.6 73554.8 -1.36471e+06 73430.5 86738.9 88718.4 90203.1 89955 89258 87111 74775.3 -1.36484e+06
          -1.33627e+06 77513.1 87311.8 88910.7 90216.7 89987.1 89385 87972.9 85915 76961.6 78249.5 87323.5
          88937.8 89505.7 90290.1 90145.3 89815.6 89270.3 88719.7 88017.2 88333.8 89299.4 89746.2 89962.3
          90366 90292.2 90140 89931.2 89765.2 89689.7 89790.7 89999.5 90150.2 90232.9 90417.1 90384.9
          90322.3 90245 90191 90181.4 90219.7 90284.5 90338.3 90369.1 90443.4 90430.9 90407.4 90380
          90362.2 90361.6 90376.2 90398.3 90417.2 90428 90453.5 90448.2 90438.6 90427.7 90421 90421.5
          90427.8 90436.6 90444.1 90448.3 90322.3 90263 90120 89846.6 89380.6 88703.7 88333.1 88739.2
          89396.3 89740.8 90291.8 90202.1 89979.3 89521 88599.1 86643.6 85776.7 87422.5 88982.8 89564.7
          90243.3 90101.4 89727.1 88828.1 86270.1 73641.9 72426 85663.4 88569.2 89410.7 90206.5 90021
          89497.4 87890.6 77512.9 -1.36409e+06 71472.2 86060.5 88721.8 89488.8 90216.7 90049 89613.1 88635.2
          86376.7 77627 85813.2 88371.6 89392.2 89786.6 90265.9 90156.2 89899.7 89445.5 88802.8 88121.9
          88817.7 89489.3 89878.7 90057.5 90318.1 90260.7 90136.5 89948.7 89753.2 89672.1 89810.3 90010.1
          90157 90231.7 90353.7 90328.4 90276.4 90205.1 90142.9 90130 90173.9 90240.2 90293.9 90322.5
          90371.9 90362.2 90342.9 90317.8 90298 90296.1 90311.3 90333.5 90352 90362 90378.8 90374.9
          90367.1 90357.5 90350.4 90350.2 90356.3 90364.7 90371.8 90375.5 90253.6 90193.6 90041 89728.9
          89137.4 88065.2 87994.6 89025.6 89625 89892.5 90224.7 90130.2 89877.9 89283.2 87581.6 78636.2
          78589.3 87568.8 89260.1 89752.3 90177.5 90021.4 89562.4 88099.4 78199.5 -1.36407e+06 -1.3394e+06 78937.3
          88470.6 89571.7 90139.8 89928.5 89259.4 86906.5 72433.8 -1.36497e+06 -1.36225e+06 79034.7 88519.5 89602.1
          90147.8 89951 89352 87469.8 77750.7 75818 78758.2 87800.4 89403.6 89846.6 90196 90071
          89743.4 89035.6 87627.7 87685.5 88401.7 89415.9 89874.7 90060.1 90246.2 90183 90033.7 89776.4
          89468.7 89513.6 89713.7 89957.8 90118.3 90193.8 90279.5 90252.6 90193.1 90103.4 90020.8 90033.7
          90098.5 90176.3 90233.5 90262 90296.1 90286.2 90264.9 90235.2 90211.3 90215.2 90236.5 90261.9
          90281.2 90291 90302.2 90298.3 90290.2 90279.3 90271.2 90272.7 90280.6 90290 90297.1 90300.7
          90177 90114.5 89956 89643.9 89136.4 88646.4 88721.6 89290.6 89721.2 89928 90145.4 90041.9
          89763.4 89133.6 87714.9 86343.9 86814.8 88616.1 89479.4 89820.3 90090.5 89904.1 89320.3 87402.9
          77338 71473.7 76308.4 87000.2 89102.7 89686.9 90040.2 89747.9 88477.5 78590.9 -1.36382e+06 -1.36616e+06
          73737.7 86876.1 89105.2 89697.5 90046 89763.4 88541.3 78992.8 -1.36379e+06 73997.2 86100.3 88607.5
          89528.3 89863.6 90104.6 89939.8 89434.8 87837.4 79547.8 87096.3 88736.5 89484.5 89866.1 90028.5
          90163 90084.6 89883.5 89473.5 88756.3 89295.8 89660.5 89912.5 90066.1 90136.8 90200.2 90168.4
          90094 89972.4 89849.5 89920.4 90021.1 90107.7 90165.4 90192.8 90218.2 90206.8 90181.6 90144.6
          90114.8 90128.7 90158.6 90187.3 90207.1 90216.5 90224.7 90220.4 90211.1 90198.3 90189 90192.8
          90203.2 90213.6 90220.9 90224.4
        </DataArray>
        <DataArray type="Float32" Name="saturation" NumberOfComponents="1" format="ascii">
          0.110095 0.11009 0.110079 0.110067 0.110056 0.110053 0.110058 0.110068 0.110077 0.110082 0.110094 0.110087
          0.110074 0.110059 0.110045 0.11004 0.110045 0.110057 0.110068 0.110074 0.110091 0.110083 0.110068 0.110047
          0.110029 0.11002 0.110027 0.110041 0.110053 0.110061 0.110089 0.110081 0.110063 0.11004 0.110018 0.110007
          0.110013 0.110027 0.11004 0.110048 0.110089 0.11008 0.110064 0.110042 0.110021 0.110011 0.110015 0.110025
          0.110035 0.110041 0.11009 0.110082 0.110068 0.110049 0.110033 0.110026 0.110029 0.110035 0.110041 0.110046
          0.110093 0.110086 0.110074 0.11006 0.110049 0.110046 0.110048 0.110052 0.110056 0.110059 0.110096 0.110091
          0.110083 0.110073 0.110066 0.110065 0.110067 0.11007 0.110073 0.110074 0.110099 0.110096 0.11009 0.110084
          0.11008 0.11008 0.110082 0.110084 0.110086 0.110087 0.110101 0.110098 0.110094 0.11009 0.110087 0.110087
          0.110089 0.110091 0.110093 0.110093 0.109988 0.109979 0.109961 0.109938 0.109919 0.109914 0.109924 0.109941
          0.109957 0.109966 0.109985 0.109974 0.109951 0.109922 0.109897 0.109888 0.1099 0.109922 0.109941 0.109952
          0.109981 0.109967 0.109939 0.109901 0.109864 0.109847 0.109863 0.109891 0.109914 0.109928 0.109978 0.109962
          0.109931 0.109887 0.109843 0.109817 0.109835 0.109863 0.109887 0.109902 0.109977 0.109961 0.109931 0.10989
          0.10985 0.10983 0.10984 0.109858 0.109875 0.109888 0.109979 0.109964 0.109937 0.109903 0.109872 0.109861
          0.109867 0.109877 0.109886 0.109895 0.109982 0.109971 0.109949 0.109922 0.109901 0.109897 0.109903 0.10991
          0.109915 0.10992 0.109988 0.109979 0.109963 0.109945 0.109932 0.109932 0.109937 0.109943 0.109947 0.10995
          0.109993 0.109987 0.109977 0.109965 0.109958 0.109959 0.109963 0.109968 0.109971 0.109973 0.109997 0.109992
          0.109985 0.109977 0.109972 0.109973 0.109977 0.109981 0.109983 0.109985 0.109874 0.109855 0.109817 0.10977
          0.10973 0.109721 0.109745 0.109783 0.109815 0.109833 0.109868 0.109844 0.109797 0.109735 0.109677 0.109658
          0.109692 0.10974 0.109781 0.109803 0.109859 0.109829 0.109769 0.109684 0.109594 0.10955 0.109602 0.109669
          0.109721 0.109751 0.109853 0.10982 0.109752 0.109653 0.109537 0.10945 0.109524 0.1096 0.109655 0.10969
          0.109851 0.109818 0.109753 0.109662 0.109566 0.109513 0.109545 0.109583 0.109618 0.109651 0.109853 0.109822
          0.109763 0.109684 0.109612 0.109593 0.109613 0.10963 0.109642 0.109666 0.109859 0.109834 0.109785 0.109722
          0.109672 0.109672 0.109692 0.109705 0.109712 0.109725 0.10987 0.109851 0.109816 0.109774 0.109745 0.109749
          0.109766 0.109778 0.109784 0.109791 0.109882 0.109869 0.109846 0.10982 0.109805 0.109809 0.109821 0.109831
          0.109837 0.109841 0.109889 0.109879 0.109863 0.109846 0.109837 0.10984 0.10985 0.109858 0.109863 0.109866
          0.109749 0.109712 0.109639 0.109543 0.109461 0.109447 0.109504 0.10958 0.109641 0.109675 0.109736 0.10969
          0.109596 0.109462 0.109331 0.109296 0.109385 0.109492 0.109573 0.109618 0.109719 0.10966 0.109535 0.109342
          0.109105 0.108985 0.109165 0.109334 0.109445 0.109508 0.109707 0.109641 0.109501 0.109275 0.108946 0.108516
          0.10893 0.109158 0.109283 0.10937 0.109703 0.109638 0.109504 0.109304 0.109068 0.108905 0.109029 0.109089
          0.109152 0.109262 0.109704 0.109642 0.109516 0.109333 0.109144 0.109137 0.109203 0.109216 0.109206 0.109288
          0.109715 0.10966 0.109552 0.109402 0.109263 0.109309 0.109375 0.109396 0.109395 0.109431 0.109736 0.109696
          0.10962 0.109524 0.109453 0.109482 0.10953 0.109555 0.109563 0.109579 0.109759 0.109732 0.109684 0.109629
          0.109595 0.109612 0.109643 0.109664 0.109675 0.109683 0.109773 0.109755 0.109722 0.109687 0.109668 0.109678
          0.109701 0.109718 0.109728 0.109734 0.109611 0.109546 0.109414 0.109233 0.109069 0.109062 0.109184 0.109325
          0.109433 0.109492 0.109589 0.109505 0.109327 0.109054 0.108748 0.108713 0.108943 0.109162 0.109309 0.10939
          0.109558 0.109449 0.109202 0.108762 0.108052 0.10778 0.108432 0.108835 0.109052 0.109183 0.109537 0.109417
          0.109142 0.108637 0.107665 0.105801 0.107669 0.108381 0.108649 0.108881 0.109528 0.10941 0.109155 0.108741
          0.108175 0.107649 0.108111 0.108006 0.108089 0.108573 0.109525 0.109406 0.109149 0.108718 0.108093 0.108331
          0.108551 0.108475 0.108204 0.108616 0.109539 0.109431 0.1092 0.108822 0.108299 0.108679 0.1089 0.108921
          0.10885 0.108976 0.109578 0.109499 0.109341 0.109124 0.108932 0.109072 0.109207 0.109253 0.109252 0.109294
          0.109621 0.10957 0.109476 0.109362 0.109289 0.109345 0.10942 0.109462 0.109478 0.109496 0.109648 0.109613
          0.109551 0.109484 0.109449 0.109478 0.109526 0.10956 0.109577 0.109588 0.109464 0.109362 0.109148 0.108829
          0.108507 0.108552 0.108789 0.109026 0.109197 0.10929 0.109427 0.109291 0.108981 0.108439 0.107649 0.107786
          0.108346 0.108754 0.108997 0.109134 0.109377 0.109191 0.108719 0.107663 0.105652 0.105609 0.107248 0.108142
          0.108522 0.108785 0.109346 0.109144 0.108635 0.107494 0.105414 0.100921 0.105423 0.107062 0.107525 0.108183
          0.10933 0.109135 0.108692 0.107919 0.106802 0.105516 0.106723 0.105588 0.105626 0.107339 0.109314 0.109103
          0.1086 0.107548 0.105627 0.106995 0.107636 0.107166 0.105693 0.107392 0.109326 0.109121 0.108634 0.107629
          0.105736 0.107529 0.108239 0.108222 0.107789 0.108305 0.109392 0.109247 0.108942 0.108461 0.107851 0.108445
          0.108793 0.108875 0.108821 0.108946 0.109467 0.109379 0.109208 0.108988 0.108825 0.108996 0.109161 0.109237
          0.109256 0.109295 0.109514 0.109456 0.10935 0.109232 0.109171 0.109242 0.109336 0.109395 0.109422 0.109442
          0.109313 0.109176 0.108877 0.108387 0.107738 0.107987 0.108358 0.108699 0.108944 0.109079 0.10926 0.109068
          0.108592 0.107564 0.105635 0.106891 0.107609 0.108309 0.108674 0.108885 0.109189 0.108908 0.108019 0.105647
          0.100932 0.105115 0.105537 0.107236 0.107854 0.1084 0.109152 0.108854 0.107941 0.105598 0.100966 0.100909
          0.100917 0.105299 0.105619 0.107348 0.109128 0.108845 0.108161 0.1069 0.10523 0.104988 0.105184 0.100952
          0.100953 0.105493 0.109087 0.108744 0.107782 0.105567 0.100971 0.10532 0.106572 0.10534 0.100992 0.105534
          0.109082 0.108698 0.107606 0.105448 0.100944 0.105574 0.107431 0.107319 0.105754 0.107511 0.109189 0.108943
          0.108378 0.107347 0.105709 0.107556 0.108364 0.108499 0.108268 0.108638 0.109309 0.109171 0.108891 0.108493
          0.108121 0.108607 0.108915 0.109038 0.10906 0.109135 0.10938 0.109294 0.109136 0.108952 0.108864 0.109008
          0.109161 0.109251 0.109293 0.109323 0.109162 0.109005 0.10868 0.108164 0.107441 0.107388 0.107947 0.108325
          0.108663 0.108853 0.109093 0.108874 0.108362 0.107327 0.105493 0.105478 0.107108 0.107975 0.108449 0.108694
          0.109009 0.108694 0.107777 0.105549 0.100924 0.10098 0.105383 0.107004 0.107883 0.108317 0.108982 0.108672
          0.107926 0.106604 0.105061 0.100908 0.104877 0.10534 0.106794 0.107681 0.108956 0.108625 0.107856 0.106558
          0.105092 0.104889 0.105023 0.100912 0.105224 0.106844 0.108894 0.108436 0.107221 0.105254 0.100908 0.105099
          0.106178 0.10536 0.10549 0.107084 0.10885 0.108112 0.105688 0.100953 0.100921 0.105422 0.107159 0.107354
          0.107437 0.108046 0.10901 0.108636 0.107617 0.105618 0.105516 0.107279 0.108185 0.108453 0.108546 0.108728
          0.109174 0.10899 0.10859 0.107933 0.10781 0.108413 0.108784 0.108958 0.109038 0.109103 0.109266 0.109161
          0.108961 0.108727 0.108676 0.108865 0.10905 0.109165 0.109226 0.109261 0.108991 0.108813 0.10849 0.1081
          0.107644 0.107237 0.107516 0.107567 0.108197 0.108524 0.108892 0.108635 0.108137 0.107547 0.106691 0.105439
          0.106793 0.107533 0.108117 0.108436 0.108781 0.1084 0.107547 0.106639 0.105187 0.100922 0.105204 0.106667
          0.107689 0.108176 0.108797 0.108454 0.10772 0.106614 0.105106 0.100905 0.100907 0.10522 0.10692 0.10781
          0.108818 0.108452 0.107496 0.105451 0.100913 0.100901 0.100907 0.100924 0.105525 0.1074 0.108794 0.108328
          0.107095 0.105197 0.100905 0.104878 0.105294 0.105504 0.107073 0.107887 0.108772 0.108042 0.105664 0.100936
          0.100917 0.105408 0.107024 0.107583 0.108125 0.108442 0.108939 0.108573 0.107579 0.105622 0.105578 0.107299
          0.108172 0.108524 0.108732 0.108862 0.109104 0.108926 0.108542 0.107922 0.107863 0.108406 0.108756 0.108948
          0.109055 0.109115 0.109195 0.109094 0.108905 0.10869 0.108659 0.108832 0.109007 0.109125 0.109193 0.109228
          0.108791 0.10855 0.108135 0.107813 0.107542 0.107274 0.106767 0.105516 0.107202 0.107985 0.108621 0.108196
          0.107349 0.106935 0.106652 0.106489 0.106389 0.106603 0.107494 0.108003 0.108415 0.107576 0.1056 0.105336
          0.105197 0.105084 0.105067 0.105367 0.107018 0.107816 0.108563 0.108081 0.107106 0.106316 0.105124 0.100909
          0.100907 0.10527 0.106987 0.107804 0.108712 0.108359 0.107595 0.106452 0.105036 0.100903 0.10489 0.105412
          0.107109 0.107915 0.108785 0.108427 0.107478 0.105456 0.100914 0.100948 0.105449 0.107006 0.107892 0.108297
          0.108842 0.108475 0.107488 0.105571 0.10531 0.105553 0.107288 0.10807 0.108471 0.108672 0.10897 0.108745
          0.108249 0.107461 0.10728 0.107692 0.108324 0.10866 0.108853 0.108951 0.109092 0.10897 0.108735 0.108449
          0.108389 0.108577 0.108811 0.108973 0.109071 0.109121 0.10916 0.109088 0.108958 0.108825 0.108798 0.10889
          0.109013 0.109109 0.109168 0.109198 0.108638 0.108305 0.107637 0.107294 0.107045 0.106817 0.10532 0.100962
          0.10544 0.107184 0.108371 0.107566 0.105622 0.105439 0.105356 0.106192 0.105192 0.105116 0.106465 0.107332
          0.107919 0.105718 0.100948 0.100913 0.100958 0.104995 0.100906 0.100937 0.105424 0.10696 0.108335 0.107498
          0.10556 0.105231 0.104866 0.100907 0.100907 0.105203 0.106667 0.107494 0.10863 0.108257 0.107451 0.106581
          0.105181 0.10091 0.105234 0.106688 0.107529 0.107982 0.108795 0.108538 0.107981 0.10702 0.105433 0.10532
          0.106847 0.107727 0.108179 0.108424 0.108902 0.108702 0.108273 0.107579 0.107134 0.107238 0.107951 0.108378
          0.108627 0.108759 0.109005 0.108878 0.108631 0.10832 0.108183 0.108293 0.108567 0.108776 0.10891 0.108978
          0.109089 0.109017 0.108887 0.108748 0.1087 0.108767 0.108892 0.108997 0.109067 0.109103 0.109134 0.10909
          0.109014 0.108939 0.108918 0.10896 0.109031 0.109094 0.109136 0.109157 0.108672 0.10844 0.108034 0.107664
          0.107104 0.106681 0.105207 0.100908 0.105264 0.106774 0.108499 0.108083 0.107253 0.106714 0.105401 0.106038
          0.105005 0.100912 0.10523 0.106457 0.108283 0.107455 0.105545 0.105173 0.100959 0.105004 0.104886 0.104994
          0.104991 0.10535 0.108425 0.107916 0.106829 0.105301 0.100909 0.100908 0.105044 0.106012 0.105387 0.106657
          0.108625 0.108305 0.10765 0.106672 0.105314 0.105185 0.106353 0.107072 0.107104 0.107665 0.108792 0.108585
          0.108169 0.107579 0.10692 0.106875 0.107508 0.107927 0.108113 0.10833 0.108914 0.108781 0.108522 0.108189
          0.107961 0.108001 0.108268 0.108494 0.108633 0.10873 0.109005 0.108928 0.108785 0.108623 0.108538 0.108577
          0.108703 0.108822 0.108903 0.10895 0.109066 0.109024 0.108951 0.108875 0.108842 0.108868 0.108931 0.108993
          0.109036 0.109059 0.109096 0.109071 0.109029 0.108987 0.108972 0.10899 0.109028 0.109064 0.10909 0.109103
          0.108749 0.108596 0.108325 0.107995 0.107532 0.106747 0.105274 0.105102 0.10629 0.10684 0.10864 0.108403
          0.107962 0.107454 0.106663 0.105333 0.10091 0.100907 0.105094 0.10534 0.1085 0.108106 0.107268 0.10643
          0.105248 0.104905 0.100898 0.104853 0.10091 0.10093 0.108483 0.108028 0.106933 0.10529 0.104872 0.100906
          0.10092 0.105063 0.100916 0.105228 0.108584 0.108194 0.107204 0.105446 0.105244 0.105287 0.105391 0.106486
          0.105533 0.106986 0.108744 0.108512 0.108002 0.10719 0.106905 0.107091 0.107345 0.107739 0.107695 0.108104
          0.108878 0.108755 0.10851 0.10819 0.108057 0.108152 0.108304 0.108457 0.108537 0.108642 0.108969 0.108908
          0.108796 0.10867 0.108616 0.108652 0.108726 0.108801 0.108853 0.108891 0.109021 0.108992 0.108942 0.108891
          0.108869 0.108885 0.10892 0.108957 0.108984 0.109 0.109043 0.109028 0.109002 0.108977 0.108967 0.108976
          0.108996 0.109016 0.109032 0.10904 0.10879 0.108678 0.10846 0.108152 0.107794 0.107297 0.106484 0.106243