<?xml version="1.0"?><VTKFile type="PolyData" version="0.1" byte_order="LittleEndian">
<PolyData>
<Piece NumberOfLines="1" NumberOfPoints="16">
<PointData Scalars=" PointData">
<DataArray type="Float32" Name="time" NumberOfComponents="1" format="ascii" >
0 0.364105 0.386762 0.50787 0.527747 0.726473 0.916515 1.10118 1.22862 1.34714 1.43295 1.55307 1.79931 1.81229 1.84301 2 
</DataArray>

</PointData>
<CellData Scalars=" CellData">
<DataArray type="Float32" Name="radius" NumberOfComponents="1" format="ascii" >
0.023 
</DataArray>
<DataArray type="Float32" Name="subType" NumberOfComponents="1" format="ascii" >
1 
</DataArray>
<DataArray type="Float32" Name="creationTime" NumberOfComponents="1" format="ascii" >
0 
</DataArray>

</CellData>
<Points>
<DataArray type="Float32" Name="Coordinates" NumberOfComponents="3" format="ascii" >
0 0 -3 0.0207874 0.0239324 -3.9995 0.0217739 0.02273 -4.06138 0.0153274 0.0275378 -4.39152 0.0135831 0.0285545 -4.44558 0.0215907 0.0208772 -4.98473 0.0133812 0.0221184 -5.49765 0.0155018 0.0309279 -5.99354 0.0192992 0.0389293 -6.33424 0.0203299 0.0482478 -6.65004 0.0217557 0.0503781 -6.8781 0.020353 0.0577824 -7.19643 0.0290593 0.0497306 -7.84584 0.0295132 0.049311 -7.87995 0.0321057 0.0485232 -7.96061 0.0445342 0.0425801 -8.37172 
</DataArray>
</Points>
<Lines>
<DataArray type="Int32" Name="connectivity" NumberOfComponents="1" format="ascii" >
0 1 2 3 4 5 6 7 8 9 10 11 12 13 14 15 
</DataArray>
<DataArray type="Int32" Name="offsets" NumberOfComponents="1" format="ascii" >
16 
</DataArray>

</Lines>
</Piece>
</PolyData>
</VTKFile>
