<?xml version="1.0"?><VTKFile type="PolyData" version="0.1" byte_order="LittleEndian">
<PolyData>
<Piece NumberOfLines="15" NumberOfPoints="106">
<PointData Scalars=" PointData">
<DataArray type="Float32" Name="time" NumberOfComponents="1" format="ascii" >
0 0.364105 0.386762 0.50787 0.527747 0.726473 0.916515 1.10118 1.22862 1.34714 1.43295 1.55307 1.79931 1.81229 1.84301 2.04849 2.27344 2.55085 2.73776 2.79479 2.98827 3.24874 3.50528 3.68333 3.86578 3.9732 4.11891 4.32083 4.55453 4.65242 4.90742 5.02433 5.27329 5.43761 5.70913 5.98805 6 4.21706 4.3639 4.51471 4.66971 4.82914 4.99327 5.16236 5.33674 5.51675 5.70275 5.89518 6 4.2422 4.62394 5.05069 5.5345 6 4.37664 4.75838 5.18513 5.66894 6 4.39871 4.78045 5.2072 5.69101 6 4.61943 5.00117 5.42792 5.91173 6 4.83063 4.97783 5.12979 5.28681 5.44924 5.61748 5.79195 5.97313 6 5.03597 5.41771 5.84446 6 5.17774 5.32469 5.47584 5.63143 5.79174 5.95707 6 5.30965 5.69139 6 5.40517 5.55244 5.70463 5.86207 6 5.53893 5.92067 6 5.8133 6 5.82777 6 5.86202 6 
</DataArray>

</PointData>
<CellData Scalars=" CellData">
<DataArray type="Float32" Name="radius" NumberOfComponents="1" format="ascii" >
0.023 0.023 0.008 0.008 0.008 0.008 0.023 0.008 0.023 0.008 0.023 0.008 0.008 0.008 0.023 
</DataArray>
<DataArray type="Float32" Name="subType" NumberOfComponents="1" format="ascii" >
1 2 3 3 3 3 2 3 2 3 2 3 3 3 2 
</DataArray>
<DataArray type="Float32" Name="creationTime" NumberOfComponents="1" format="ascii" >
0 4.21706 4.2422 4.37664 4.39871 4.61943 4.83063 5.03597 5.17774 5.30965 5.40517 5.53893 5.8133 5.82777 5.86202 
</DataArray>

</CellData>
<Points>
<DataArray type="Float32" Name="Coordinates" NumberOfComponents="3" format="ascii" >
0 0 -3 0.0207874 0.0239324 -3.9995 0.0217739 0.02273 -4.06138 0.0153274 0.0275378 -4.39152 0.0135831 0.0285545 -4.44558 0.0215907 0.0208772 -4.98473 0.0133812 0.0221184 -5.49765 0.0155018 0.0309279 -5.99354 0.0192992 0.0389293 -6.33424 0.0203299 0.0482478 -6.65004 0.0217557 0.0503781 -6.8781 0.020353 0.0577824 -7.19643 0.0290593 0.0497306 -7.84584 0.0295132 0.049311 -7.87995 0.0321057 0.0485232 -7.96061 0.0510558 0.0794278 -8.49745 0.0734468 0.109462 -9.08187 0.11866 0.116916 -9.79771 0.156717 0.103026 -10.2763 0.167738 0.101942 -10.4219 0.18755 0.0820747 -10.9149 0.219399 0.0619733 -11.5746 0.252439 0.0422859 -12.2198 0.25127 0.0501602 -12.6656 0.248522 0.0577335 -13.1202 0.240008 0.0530534 -13.3867 0.230255 0.0316903 -13.7464 0.214614 0.0274547 -14.2434 0.213075 0.0207644 -14.8154 0.212027 0.023082 -15.0539 0.178455 0.0427319 -15.6712 0.152685 0.0458898 -15.9521 0.0938133 0.0220376 -16.5466 0.0533919 0.00248735 -16.9364 -0.0170342 -0.0345259 -17.576 -0.0757614 -0.0467365 -18.2305 -0.0781337 -0.0472724 -18.2584 0.0207874 0.0239324 -3.9995 0.305502 0.286945 -4.0983 0.619379 0.507756 -4.2111 0.933302 0.726202 -4.32829 1.19633 1.0069 -4.43795 1.44502 1.2907 -4.57065 1.67869 1.58788 -4.70136 1.93341 1.87752 -4.80731 2.19817 2.14657 -4.93965 2.46157 2.41736 -5.07115 2.75458 2.68477 -5.12249 2.91229 2.8263 -5.13309 0.0217739 0.02273 -4.06138 -0.620884 -0.665077 -4.39889 -1.30098 -1.38917 -4.51359 -1.79155 -2.16712 -4.9062 -2.10609 -2.61518 -5.54853 0.0153274 0.0275378 -4.39152 0.849381 -0.47964 -4.60861 1.4534 -1.22792 -4.3343 2.10355 -1.97519 -4.19691 2.51918 -2.42166 -4.15745 0.0135831 0.0285545 -4.44558 -0.271138 0.911392 -4.81912 -0.740987 1.78594 -4.93912 -1.0977 2.65524 -5.28129 -1.24317 3.12163 -5.5792 0.0215907 0.0208772 -4.98473 -0.900988 0.0239608 -5.37053 -1.80557 -0.0119004 -5.79531 -2.79428 -0.0991168 -5.91712 -2.96122 -0.114931 -5.93344 0.0133812 0.0221184 -5.49765 0.321471 -0.205633 -5.61259 0.626549 -0.420534 -5.75662 0.930593 -0.642978 -5.89107 1.23496 -0.838186 -6.06211 1.56149 -1.02097 -6.20342 1.89605 -1.21645 -6.30269 2.23798 -1.39657 -6.40584 2.28566 -1.42755 -6.41743 0.0155018 0.0309279 -5.99354 -0.881401 -0.0550756 -6.42733 -1.78918 -0.0964653 -6.84472 -2.02316 -0.239803 -7.03891 0.0192992 0.0389293 -6.33424 -0.186961 0.360982 -6.45145 -0.395761 0.68331 -6.56329 -0.585237 1.02369 -6.65405 -0.774405 1.3596 -6.76074 -0.985143 1.67627 -6.88447 -1.03934 1.7565 -6.91607 0.0203299 0.0482478 -6.65004 0.754518 -0.308204 -7.22789 1.2966 -0.568127 -7.65048 0.0217557 0.0503781 -6.8781 -0.352628 -0.0264992 -6.99611 -0.723016 -0.154319 -7.07658 -1.08377 -0.295075 -7.17681 -1.39088 -0.41994 -7.24896 0.020353 0.0577824 -7.19643 -0.369994 -0.799884 -7.53115 -0.45891 -0.954355 -7.61002 0.0290593 0.0497306 -7.84584 0.395074 0.346468 -8.01968 0.0295132 0.049311 -7.87995 -0.296124 -0.281533 -7.88287 0.0321057 0.0485232 -7.96061 -0.310289 -0.0501756 -8.08112 
</DataArray>
</Points>
<Lines>
<DataArray type="Int32" Name="connectivity" NumberOfComponents="1" format="ascii" >
0 1 2 3 4 5 6 7 8 9 10 11 12 13 14 15 16 17 18 19 20 21 22 23 24 25 26 27 28 29 30 31 32 33 34 35 36 37 38 39 40 41 42 43 44 45 46 47 48 49 50 51 52 53 54 55 56 57 58 59 60 61 62 63 64 65 66 67 68 69 70 71 72 73 74 75 76 77 78 79 80 81 82 83 84 85 86 87 88 89 90 91 92 93 94 95 96 97 98 99 100 101 102 103 104 105 
</DataArray>
<DataArray type="Int32" Name="offsets" NumberOfComponents="1" format="ascii" >
37 49 54 59 64 69 78 82 89 92 97 100 102 104 106 
</DataArray>

</Lines>
</Piece>
</PolyData>
</VTKFile>
