<?xml version="1.0"?><VTKFile type="PolyData" version="0.1" byte_order="LittleEndian">
<PolyData>
<Piece NumberOfLines="185" NumberOfPoints="1530">
<PointData Scalars=" PointData">
<DataArray type="Float32" Name="time" NumberOfComponents="1" format="ascii" >
0 0.364104 0.613362 0.695872 0.876113 1.11896 1.15269 1.45696 1.49057 1.63787 1.78381 1.98077 2.09521 2.41808 2.42524 2.63386 2.85438 3.0806 3.28999 3.45264 3.61675 3.86321 3.95586 4.06623 4.15525 4.43216 4.60897 4.79767 5.02824 5.10127 5.5195 5.53379 5.63019 5.83039 5.96474 6.01531 6.24092 6.5157 6.85174 7.20251 7.55655 7.69532 7.86932 8.14147 8.18469 8.31931 8.67765 9.04659 9.16541 9.20246 9.32445 9.57333 10.0012 10.1348 10.351 10.6653 10.9159 11.1028 11.1607 11.309 11.4931 11.7998 11.8654 12.034 12.0697 12.2015 12.5118 12.9112 13.039 13.3445 13.6207 13.7699 14 4.21691 4.36398 4.5155 4.67176 4.83307 4.99975 5.17218 5.35077 5.53598 5.72831 5.92834 6.1367 6.35413 6.58144 6.81958 7.06963 7.33285 7.6107 7.9049 8.2175 8.55096 8.90825 9.29306 10.4088 11.8472 13.8745 14 6.46649 6.84823 7.27498 7.75879 8.31731 8.97789 9.78638 10.8287 12.2978 14 6.69909 7.08083 7.50758 7.99139 8.54991 9.21049 10.019 11.0613 12.5304 14 6.94304 7.32478 7.75153 8.23534 8.79386 9.45444 10.2629 11.3053 12.7743 14 7.19951 7.58125 8.008 8.49181 9.05033 9.71091 10.5194 11.5617 13.0308 14 7.46984 7.85158 8.27833 8.76214 9.32066 9.98125 10.7897 11.8321 13.3011 14 7.75564 8.13738 8.56413 9.04794 9.60645 10.267 11.0755 12.1179 13.5869 14 8.05876 8.4405 8.86725 9.35106 9.90958 10.5702 11.3787 12.421 13.8901 14 8.38145 8.76319 9.18994 9.67375 10.2323 10.8929 11.7013 12.7437 14 8.72642 9.10816 9.53491 10.0187 10.5772 11.2378 12.0463 13.0886 14 9.09696 9.4787 9.90545 10.3893 10.9478 11.6084 12.4168 13.4592 14 9.49717 9.87891 10.3057 10.7895 11.348 12.0086 12.8171 13.8594 14 9.93223 10.314 10.7407 11.2245 11.783 12.4436 13.2521 14 10.4088 10.7905 11.2173 11.7011 12.2596 12.9202 13.7287 14 10.9356 11.3173 11.7441 12.2279 12.7864 13.447 14 11.5245 11.9062 12.333 12.8168 13.3753 14 12.1922 12.5739 13.0006 13.4845 14 12.9629 13.3446 13.7714 14 13.8745 14 4.49362 4.64041 4.79107 4.9458 5.10483 5.2684 5.43678 5.61027 5.78918 5.97386 6.1647 6.36212 6.56659 6.77864 6.99885 7.22786 7.46642 7.71536 7.97562 8.24827 8.53456 8.83593 9.15404 9.49088 9.84879 10.2306 10.6397 11.0802 12.3576 14 6.67164 7.05338 7.48013 7.96394 8.52245 9.18304 9.99153 11.0339 12.5029 14 6.88768 7.26943 7.69618 8.17999 8.7385 9.39909 10.2076 11.2499 12.719 14 7.11221 7.49395 7.9207 8.40451 8.96303 9.62361 10.4321 11.4744 12.9435 14 7.3459 7.72764 8.15439 8.6382 9.19672 9.8573 10.6658 11.7081 13.1772 14 7.58954 7.97128 8.39803 8.88184 9.44036 10.1009 10.9094 11.9518 13.4208 14 7.84401 8.22575 8.6525 9.13631 9.69483 10.3554 11.1639 12.2062 13.6753 14 8.11032 8.49206 8.91881 9.40262 9.96114 10.6217 11.4302 12.4725 13.9416 14 8.38963 8.77137 9.19812 9.68193 10.2404 10.901 11.7095 12.7518 14 8.68326 9.065 9.49175 9.97556 10.5341 11.1947 12.0032 13.0455 14 8.99278 9.37452 9.80127 10.2851 10.8436 11.5042 12.3127 13.355 14 9.31999 9.70173 10.1285 10.6123 11.1708 11.8314 12.6399 13.6822 14 9.66704 10.0488 10.4755 10.9593 11.5179 12.1784 12.9869 14 10.0365 10.4182 10.845 11.3288 11.8873 12.5479 13.3564 14 10.4315 10.8132 11.24 11.7238 12.2823 12.9429 13.7514 14 10.8557 11.2374 11.6642 12.148 12.7065 13.3671 14 11.3139 11.6957 12.1224 12.6062 13.1647 13.8253 14 11.812 12.1938 12.6205 13.1043 13.6628 14 12.3576 12.7394 13.1661 13.6499 14 12.9608 13.3425 13.7693 14 13.6351 14 4.58526 4.73221 4.88336 5.03895 5.19927 5.36459 5.53524 5.71159 5.89401 6.08296 6.2789 6.48238 6.694 6.91445 7.14448 7.38497 7.63691 7.90146 8.17994 8.47389 8.78515 9.11587 9.46866 9.84667 10.2538 11.4342 12.956 14 6.80308 7.18482 7.61157 8.09538 8.65389 9.31448 10.123 11.1653 12.6344 14 7.02821 7.40995 7.8367 8.32051 8.87903 9.53961 10.3481 11.3904 12.8595 14 7.26335 7.6451 8.07185 8.55566 9.11417 9.77476 10.5832 11.6256 13.0947 14 7.50944 7.89118 8.31793 8.80174 9.36026 10.0208 10.8293 11.8717 13.3407 14 7.76753 8.14927 8.57602 9.05983 9.61835 10.2789 11.0874 12.1298 13.5988 14 8.03887 8.42061 8.84736 9.33117 9.88968 10.5503 11.3588 12.4011 13.8702 14 8.32487 8.70661 9.13336 9.61717 10.1757 10.8363 11.6448 12.6871 14 8.62723 9.00897 9.43572 9.91953 10.4781 11.1386 11.9471 12.9895 14 8.94793 9.32967 9.75642 10.2402 10.7987 11.4593 12.2678 13.3101 14 9.28933 9.67107 10.0978 10.5816 11.1401 11.8007 12.6092 13.6515 14 9.65429 10.036 10.4628 10.9466 11.5051 12.1657 12.9742 14 10.0463 10.4281 10.8548 11.3386 11.8971 12.5577 13.3662 14 10.4697 10.8515 11.2782 11.762 12.3205 12.9811 13.7896 14 10.93 11.3117 11.7385 12.2223 12.7808 13.4414 14 11.4342 11.8159 12.2427 12.7265 13.285 13.9456 14 11.9915 12.3733 12.8 13.2838 13.8423 14 12.6146 12.9963 13.4231 13.9069 14 13.3209 13.7027 14 4.78553 5.16727 5.59402 6.07783 6.63635 7.29693 8.10543 9.14775 10.6168 13.1282 14 5.05554 5.43728 5.86403 6.34784 6.90635 7.56694 8.37543 9.41776 10.8868 13.3982 14 5.09306 5.4748 5.90155 6.38536 6.94388 7.60446 8.41295 9.45528 10.9244 13.4358 14 5.43167 5.81341 6.24016 6.72397 7.28249 7.94307 8.75156 9.79389 11.263 13.7744 14 5.4691 5.85084 6.27759 6.7614 7.31991 7.9805 8.78899 9.83132 11.3004 13.8118 14 5.63315 6.01489 6.44164 6.92545 7.48397 8.14456 8.95305 9.99537 11.4644 13.9759 14 5.79576 6.1775 6.60425 7.08806 7.64658 8.30716 9.11565 10.158 11.6271 14 6.01535 6.39709 6.82384 7.30765 7.86617 8.52675 9.33524 10.3776 11.8466 14 6.14299 6.52473 6.95148 7.43529 7.99381 8.65439 9.46288 10.5052 11.9743 14 6.50337 6.65003 6.80026 6.95426 7.1122 7.2743 7.44078 7.61189 7.78788 7.96905 8.15572 8.34821 8.54692 8.75226 8.96467 9.18467 9.41283 9.64976 9.89617 10.1528 10.4207 10.7007 10.9941 11.3021 11.6264 11.9686 12.3311 12.7162 13.1269 13.5671 14 8.64873 9.03047 9.45722 9.94103 10.4996 11.1601 11.9686 13.011 14 8.85755 9.23929 9.66604 10.1498 10.7084 11.3689 12.1774 13.2198 14 9.07369 9.45543 9.88218 10.366 10.9245 11.5851 12.3936 13.4359 14 9.29769 9.67943 10.1062 10.59 11.1485 11.8091 12.6176 13.6599 14 9.53015 9.91189 10.3386 10.8225 11.381 12.0416 12.85 13.8924 14 9.77173 10.1535 10.5802 11.064 11.6225 12.2831 13.0916 14 10.0232 10.4049 10.8317 11.3155 11.874 12.5346 13.3431 14 10.2853 10.6671 11.0938 11.5776 12.1361 12.7967 13.6052 14 10.5591 10.9408 11.3676 11.8514 12.4099 13.0705 13.879 14 10.8456 11.2274 11.6541 12.1379 12.6965 13.357 14 11.1462 11.5279 11.9547 12.4385 12.997 13.6576 14 11.4621 11.8438 12.2706 12.7544 13.3129 13.9735 14 11.7951 12.1769 12.6036 13.0874 13.6459 14 12.1472 12.5289 12.9557 13.4395 13.998 14 12.5206 12.9023 13.3291 13.8129 14 12.9181 13.2999 13.7266 14 13.3431 13.7248 14 13.7995 14 6.51137 6.89311 7.31986 7.80367 8.36218 9.02277 9.83126 10.8736 12.3427 14 6.74441 7.12615 7.5529 8.03671 8.59523 9.25581 10.0643 11.1066 12.5757 14 6.99093 7.37267 7.79942 8.28323 8.84175 9.50233 10.3108 11.3531 12.8222 14 7.244 7.62574 8.05249 8.5363 9.09482 9.7554 10.5639 11.6062 13.0753 14 7.47841 7.86015 8.2869 8.77071 9.32922 9.98981 10.7983 11.8406 13.3097 14 7.6606 8.04234 8.46909 8.9529 9.51141 10.172 10.9805 12.0228 13.4919 14 7.84451 8.22625 8.653 9.13681 9.69533 10.3559 11.1644 12.2067 13.6758 14 8.12091 8.50265 8.9294 9.41321 9.97173 10.6323 11.4408 12.4831 13.9522 14 8.22488 8.60662 9.03337 9.51718 10.0757 10.7363 11.5448 12.5871 14 8.34876 8.49577 8.6471 8.80302 8.96382 9.1298 9.30131 9.47874 9.6625 9.85308 10.051 10.2568 10.4712 10.6949 10.9288 11.1739 11.4312 11.702 11.9879 12.2907 12.6123 12.9555 13.3231 13.7191 14 10.5819 10.9636 11.3904 11.8742 12.4327 13.0933 13.9018 14 10.8106 11.1923 11.6191 12.1029 12.6614 13.322 14 11.0499 11.4316 11.8584 12.3422 12.9007 13.5613 14 11.3009 11.6827 12.1094 12.5932 13.1517 13.8123 14 11.5648 11.9466 12.3733 12.8571 13.4156 14 11.843 12.2247 12.6515 13.1353 13.6938 14 12.1371 12.5188 12.9456 13.4294 13.9879 14 12.449 12.8307 13.2575 13.7413 14 12.781 13.1628 13.5895 14 13.136 13.5177 13.9445 14 13.5173 13.899 14 13.9291 14 8.34876 8.49547 8.64584 8.80006 8.95835 9.12091 9.28799 9.45985 9.63676 9.81903 10.007 10.201 10.4015 10.6089 10.8238 11.0466 11.2779 11.5185 11.7692 12.0307 12.3041 12.5906 12.8914 13.208 13.5422 13.8961 14 10.5043 10.8861 11.3128 11.7966 12.3552 13.0157 13.8242 14 10.7154 11.0971 11.5239 12.0077 12.5662 13.2268 14 10.9341 11.3159 11.7426 12.2264 12.785 13.4455 14 11.1611 11.5429 11.9696 12.4534 13.0119 13.6725 14 11.397 11.7788 12.2055 12.6893 13.2478 13.9084 14 11.6425 12.0243 12.451 12.9348 13.4934 14 11.8985 12.2803 12.707 13.1908 13.7493 14 12.1659 12.5476 12.9744 13.4582 14 12.4457 12.8274 13.2542 13.738 14 12.7391 13.1209 13.5476 14 13.0476 13.4294 13.8561 14 13.3728 13.7545 14 13.7166 14 8.44873 8.59593 8.74788 8.9049 9.06734 9.23558 9.41005 9.59123 9.77966 9.97594 10.1808 10.3949 10.6192 10.8548 11.1027 11.3645 11.6416 11.9361 12.2502 12.5868 12.9493 14 10.7355 11.1173 11.544 12.0278 12.5864 13.2469 14 10.9771 11.3589 11.7856 12.2694 12.828 13.4885 14 11.2318 11.6135 12.0403 12.5241 13.0826 13.7432 14 11.501 11.8828 12.3095 12.7933 13.3518 14 11.7866 12.1683 12.5951 13.0789 13.6374 14 12.0906 12.4723 12.8991 13.3829 13.9414 14 12.4155 12.7973 13.224 13.7078 14 12.7646 13.1463 13.5731 14 13.1416 13.5233 13.9501 14 13.5514 13.9332 14 8.75984 8.90659 9.0571 9.21157 9.37022 9.53327 9.70098 9.87363 10.0515 10.2349 10.4243 10.62 10.8224 11.032 11.2495 11.4752 11.7101 11.9547 12.2099 12.4767 12.7563 13.0498 13.3588 13.685 14 10.9263 11.308 11.7348 12.2186 12.7771 13.4377 14 11.1397 11.5215 11.9482 12.432 12.9906 13.6511 14 11.3613 11.743 12.1698 12.6536 13.2121 13.8727 14 11.5915 11.9732 12.4 12.8838 13.4423 14 11.8311 12.2128 12.6396 13.1234 13.6819 14 12.0809 12.4626 12.8894 13.3732 13.9317 14 12.3418 12.7235 13.1503 13.6341 14 12.6149 12.9966 13.4233 13.9072 14 12.9012 13.283 13.7097 14 13.2023 13.584 14 13.5196 13.9014 14 13.8551 14 8.95864 9.34039 9.76714 10.2509 10.8095 11.47 12.2785 13.3209 14 9.17095 9.55269 9.97944 10.4633 11.0218 11.6824 12.4908 13.5332 14 9.43055 9.81229 10.239 10.7229 11.2814 11.942 12.7504 13.7928 14 9.51282 9.89456 10.3213 10.8051 11.3636 12.0242 12.8327 13.875 14 10.0005 10.3822 10.809 11.2928 11.8513 12.5119 13.3204 14 10.1092 10.2561 10.4069 10.5619 10.7213 10.8855 11.0546 11.2289 11.4089 11.5949 11.7874 11.9867 12.1933 12.408 12.6312 12.8637 13.1064 13.36 13.6258 13.9048 14 12.2996 12.6814 13.1081 13.5919 14 12.5185 12.9002 13.327 13.8108 14 12.7462 13.128 13.5547 14 12.9837 13.3655 13.7922 14 13.2317 13.6135 14 13.4913 13.8731 14 13.7635 14 10.3353 10.717 11.1438 11.6276 12.1861 12.8467 13.6552 14 10.4871 10.6343 10.7865 10.944 11.107 11.2761 11.4517 11.6344 11.8246 12.0231 12.2307 12.4481 12.6764 12.9168 13.1704 13.4391 13.7245 14 12.795 13.1767 13.6035 14 13.0418 13.4236 13.8503 14 13.3028 13.6845 14 13.5795 13.9613 14 13.8742 14 10.5442 10.926 11.3527 11.8365 12.395 13.0556 13.8641 14 10.7993 11.181 11.6078 12.0916 12.6501 13.3107 14 11.1102 11.492 11.9187 12.4025 12.9611 13.6216 14 11.1102 11.492 11.9187 12.4025 12.9611 13.6216 14 11.4909 11.638 11.7893 11.9452 12.106 12.272 12.4435 12.6209 12.8047 12.9953 13.1932 13.399 13.6134 13.8371 14 13.724 14 13.9527 14 11.8888 12.2706 12.6973 13.1811 13.7396 14 12.2909 12.6727 13.0994 13.5832 14 12.4487 12.8304 13.2572 13.741 14 12.6466 13.0283 13.4551 13.9389 14 12.9564 13.3381 13.7649 14 13.0056 13.1525 13.3035 13.4588 13.6186 13.7833 13.9532 14 13.159 13.5408 13.9675 14 13.5677 13.7144 13.865 14 13.9891 14 13.9891 14 
</DataArray>

</PointData>
<CellData Scalars=" CellData">
<DataArray type="Float32" Name="radius" NumberOfComponents="1" format="ascii" >
0.023 0.023 0.008 0.008 0.008 0.008 0.008 0.008 0.008 0.008 0.008 0.008 0.008 0.008 0.008 0.008 0.008 0.008 0.008 0.008 0.023 0.008 0.008 0.008 0.008 0.008 0.008 0.008 0.008 0.008 0.008 0.008 0.008 0.008 0.008 0.008 0.008 0.008 0.008 0.008 0.008 0.023 0.008 0.008 0.008 0.008 0.008 0.008 0.008 0.008 0.008 0.008 0.008 0.008 0.008 0.008 0.008 0.008 0.008 0.008 0.008 0.008 0.008 0.008 0.008 0.008 0.008 0.008 0.008 0.023 0.008 0.008 0.008 0.008 0.008 0.008 0.008 0.008 0.008 0.008 0.008 0.008 0.008 0.008 0.008 0.008 0.008 0.008 0.008 0.008 0.008 0.008 0.008 0.008 0.008 0.008 0.008 0.023 0.008 0.008 0.008 0.008 0.008 0.008 0.008 0.008 0.008 0.008 0.008 0.008 0.023 0.008 0.008 0.008 0.008 0.008 0.008 0.008 0.008 0.008 0.008 0.008 0.008 0.008 0.023 0.008 0.008 0.008 0.008 0.008 0.008 0.008 0.008 0.008 0.008 0.023 0.008 0.008 0.008 0.008 0.008 0.008 0.008 0.008 0.008 0.008 0.008 0.008 0.008 0.008 0.008 0.008 0.008 0.023 0.008 0.008 0.008 0.008 0.008 0.008 0.008 0.008 0.023 0.008 0.008 0.008 0.008 0.008 0.008 0.008 0.008 0.008 0.023 0.008 0.008 0.008 0.008 0.008 0.008 0.008 0.023 0.008 0.023 0.008 0.023 
</DataArray>
<DataArray type="Float32" Name="subType" NumberOfComponents="1" format="ascii" >
1 2 3 3 3 3 3 3 3 3 3 3 3 3 3 3 3 3 3 3 2 3 3 3 3 3 3 3 3 3 3 3 3 3 3 3 3 3 3 3 3 2 3 3 3 3 3 3 3 3 3 3 3 3 3 3 3 3 3 3 3 3 3 3 3 3 3 3 3 2 3 3 3 3 3 3 3 3 3 3 3 3 3 3 3 3 3 3 3 3 3 3 3 3 3 3 3 2 3 3 3 3 3 3 3 3 3 3 3 3 2 3 3 3 3 3 3 3 3 3 3 3 3 3 2 3 3 3 3 3 3 3 3 3 3 2 3 3 3 3 3 3 3 3 3 3 3 3 3 3 3 3 3 2 3 3 3 3 3 3 3 3 2 3 3 3 3 3 3 3 3 3 2 3 3 3 3 3 3 3 2 3 2 3 2 
</DataArray>
<DataArray type="Float32" Name="creationTime" NumberOfComponents="1" format="ascii" >
0 4.21691 6.46649 6.69909 6.94304 7.19951 7.46984 7.75564 8.05876 8.38145 8.72642 9.09696 9.49717 9.93223 10.4088 10.9356 11.5245 12.1922 12.9629 13.8745 4.49362 6.67164 6.88768 7.11221 7.3459 7.58954 7.84401 8.11032 8.38963 8.68326 8.99278 9.31999 9.66704 10.0365 10.4315 10.8557 11.3139 11.812 12.3576 12.9608 13.6351 4.58526 6.80308 7.02821 7.26335 7.50944 7.76753 8.03887 8.32487 8.62723 8.94793 9.28933 9.65429 10.0463 10.4697 10.93 11.4342 11.9915 12.6146 13.3209 4.78553 5.05554 5.09306 5.43167 5.4691 5.63315 5.79576 6.01535 6.14299 6.50337 8.64873 8.85755 9.07369 9.29769 9.53015 9.77173 10.0232 10.2853 10.5591 10.8456 11.1462 11.4621 11.7951 12.1472 12.5206 12.9181 13.3431 13.7995 6.51137 6.74441 6.99093 7.244 7.47841 7.6606 7.84451 8.12091 8.22488 8.34876 10.5819 10.8106 11.0499 11.3009 11.5648 11.843 12.1371 12.449 12.781 13.136 13.5173 13.9291 8.34876 10.5043 10.7154 10.9341 11.1611 11.397 11.6425 11.8985 12.1659 12.4457 12.7391 13.0476 13.3728 13.7166 8.44873 10.7355 10.9771 11.2318 11.501 11.7866 12.0906 12.4155 12.7646 13.1416 13.5514 8.75984 10.9263 11.1397 11.3613 11.5915 11.8311 12.0809 12.3418 12.6149 12.9012 13.2023 13.5196 13.8551 8.95864 9.17095 9.43055 9.51282 10.0005 10.1092 12.2996 12.5185 12.7462 12.9837 13.2317 13.4913 13.7635 10.3353 10.4871 12.795 13.0418 13.3028 13.5795 13.8742 10.5442 10.7993 11.1102 11.1102 11.4909 13.724 13.9527 11.8888 12.2909 12.4487 12.6466 12.9564 13.0056 13.159 13.5677 13.9891 13.9891 
</DataArray>

</CellData>
<Points>
<DataArray type="Float32" Name="Coordinates" NumberOfComponents="3" format="ascii" >
0 0 -3 0.0596963 -0.0258402 -3.99788 0.109485 -0.05386 -4.6744 0.126818 -0.0606082 -4.89736 0.164572 -0.0692605 -5.38283 0.204682 -0.0597422 -6.03395 0.208736 -0.0580772 -6.12414 0.225014 -0.0533368 -6.93465 0.227408 -0.0526338 -7.02376 0.230333 -0.0671306 -7.4132 0.239164 -0.0903472 -7.79698 0.253487 -0.108103 -8.31314 0.241651 -0.127199 -8.61121 0.165923 -0.127052 -9.44619 0.164195 -0.126943 -9.46463 0.104612 -0.1286 -9.99905 0.0810853 -0.102292 -10.5631 0.0666421 -0.0823465 -11.1388 0.0594465 -0.044344 -11.6677 0.0520778 -0.00496231 -12.0755 0.0272556 0.021053 -12.4856 0.0172227 -0.0296989 -13.0983 0.0203017 -0.0470747 -13.3277 0.0184933 -0.0556461 -13.6009 0.0178798 -0.0630765 -13.8206 -0.0300889 -0.0815675 -14.4992 -0.060787 -0.0946757 -14.9298 -0.0692124 -0.0871971 -15.3883 -0.0838681 -0.0746945 -15.9452 -0.0903994 -0.0717149 -16.1209 -0.141487 -0.0647981 -17.1195 -0.143497 -0.0644299 -17.1534 -0.15676 -0.0622311 -17.3819 -0.186184 -0.0339278 -17.8534 -0.205711 -0.0146291 -18.1684 -0.206754 -0.00546387 -18.2867 -0.207788 0.00882719 -18.8142 -0.212487 0.0216973 -19.4523 -0.223883 0.0237836 -20.2265 -0.213581 0.0279211 -21.0271 -0.203399 0.0281399 -21.8275 -0.186553 0.0415577 -22.1384 -0.158384 0.0548328 -22.5263 -0.106198 0.07921 -23.1286 -0.0958101 0.0879265 -23.2233 -0.07436 0.104834 -23.5193 -0.00469653 0.0753803 -24.3018 0.00865123 0.00321762 -25.0998 0.00187062 -0.0183841 -25.3552 0.000552503 -0.0205764 -25.4349 0.000987229 -0.0156609 -25.697 0.00159701 -0.00546879 -26.229 0.0066019 0.0115859 -27.1353 0.00782251 0.0167328 -27.4163 0.0117599 0.0465137 -27.8676 0.0113353 0.0885631 -28.5192 0.0118787 0.122664 -29.0348 -0.00662261 0.142234 -29.417 -0.00923358 0.148213 -29.5351 -0.0243873 0.16347 -29.8366 -0.0199268 0.166789 -30.2098 -0.0271362 0.153547 -30.8277 -0.0243692 0.146857 -30.9589 -0.00705146 0.139965 -31.2953 -0.00363594 0.138842 -31.3663 0.0121667 0.131688 -31.6278 0.0233255 0.120061 -32.2409 0.0541064 0.141758 -33.0218 0.0698533 0.142725 -33.2699 0.0724799 0.107674 -33.8591 0.0734771 0.0848972 -34.3882 0.0495389 0.0906179 -34.6715 -0.0035527 0.107575 -35.1043 0.0596963 -0.0258402 -3.99788 0.0937078 -0.409213 -4.10682 0.126032 -0.792382 -4.21699 0.167997 -1.16959 -4.34329 0.0951185 -1.55508 -4.4213 0.0210392 -1.94041 -4.49897 -0.0513526 -2.32358 -4.58808 -0.10734 -2.70686 -4.68791 -0.175917 -3.09513 -4.75532 -0.250224 -3.48451 -4.80882 -0.324269 -3.87605 -4.84365 -0.333195 -4.27475 -4.87458 -0.253651 -4.66215 -4.93455 -0.200678 -5.04763 -5.02728 -0.19302 -5.43556 -5.12448 -0.187931 -5.82747 -5.20437 -0.133985 -6.20855 -5.3133 -0.0600654 -6.57433 -5.45732 0.0294572 -6.94044 -5.59131 0.139026 -7.31705 -5.66979 0.198363 -7.70766 -5.73222 0.258385 -8.09829 -5.79393 0.320501 -8.48571 -5.87171 0.464159 -9.45312 -6.08022 0.528877 -10.4229 -6.31559 0.516389 -11.3838 -6.59209 0.515964 -11.4315 -6.60565 0.0596963 -0.0258402 -3.99788 -0.39054 -0.821106 -3.59188 -0.508481 -1.77555 -3.31777 0.149446 -2.5221 -3.21885 0.470064 -3.39135 -3.59517 0.793466 -3.90531 -4.38969 1.39181 -4.1932 -5.13743 1.99892 -4.53417 -5.85517 2.18395 -4.90118 -6.7668 2.13115 -5.13331 -7.47775 0.0937078 -0.409213 -4.10682 -0.505828 -0.522752 -4.89908 -0.680469 -0.477157 -5.88265 -0.70779 -0.383273 -6.87786 -0.92364 -0.52382 -7.84412 -1.02728 -0.733011 -8.81649 -1.2002 -0.93128 -9.78126 -1.30918 -0.94848 -10.7752 -1.4336 -0.983404 -11.7668 -1.60502 -1.01196 -12.4106 0.126032 -0.792382 -4.21699 -0.353698 -0.885848 -5.08942 -0.645539 -0.934508 -6.04464 -0.33438 -0.855881 -6.99174 -0.203184 -0.664844 -7.96452 -0.0278385 -0.467306 -8.92901 0.159778 -0.329615 -9.90155 0.276091 -0.519127 -10.8765 0.387348 -0.567234 -11.8691 0.296251 -0.569494 -12.4359 0.167997 -1.16959 -4.34329 -0.239304 -1.09887 -5.25384 -0.644644 -0.678252 -6.0655 -1.29413 -0.4457 -6.78944 -1.82693 -0.594967 -7.62241 -2.29548 -0.615157 -8.50562 -2.02947 -0.815416 -9.44856 -2.13994 -1.00745 -10.4237 -2.06631 -0.637357 -11.3498 -2.15421 -0.62149 -11.8106 0.0951185 -1.55508 -4.4213 -0.520825 -1.95697 -3.74373 -1.21953 -2.40695 -3.18756 -1.87656 -2.75027 -2.51641 -2.50559 -3.08755 -1.81601 -3.2254 -3.51591 -1.26976 -3.61254 -4.43752 -1.29739 -4.07458 -5.32424 -1.31315 -4.40758 -6.2435 -1.52308 -4.61255 -6.51161 -1.61898 0.0210392 -1.94041 -4.49897 -0.308833 -2.05849 -5.43559 -0.627345 -2.18472 -6.37506 -0.816386 -1.98511 -7.33653 -1.05011 -1.87205 -8.30224 -1.21766 -1.76028 -9.28175 -1.13265 -1.70142 -10.2764 -1.01816 -1.82663 -11.2619 -1.30367 -1.75398 -12.2175 -1.3628 -1.71833 -12.4216 -0.0513526 -2.32358 -4.58808 0.387977 -2.13622 -5.46665 0.548364 -1.78778 -6.39016 0.527494 -1.77032 -7.38978 0.181713 -1.68508 -8.32422 -0.497351 -1.50316 -9.0354 -1.38613 -1.56914 -9.48896 -2.23128 -1.46549 -10.0134 -3.04261 -1.85538 -10.4489 -3.0937 -1.86299 -10.479 -0.10734 -2.70686 -4.68791 0.782174 -3.11191 -4.47648 1.61405 -3.56725 -4.15923 2.48896 -4.03851 -4.04767 3.27274 -4.64642 -3.92067 4.05889 -5.25446 -3.80991 4.92843 -5.684 -3.56621 5.90142 -5.82707 -3.38503 6.72516 -6.12264 -3.30257 -0.175917 -3.09513 -4.75532 0.162344 -3.83156 -4.16946 0.442157 -4.77801 -4.00837 0.877952 -5.6385 -4.27225 1.28659 -6.37658 -4.80914 1.55899 -6.94244 -5.58735 1.83744 -7.51583 -6.35786 2.26321 -8.13801 -7.01483 2.34647 -8.46162 -7.59231 -0.250224 -3.48451 -4.80882 -1.03798 -3.74961 -5.36484 -1.79536 -4.33134 -5.66143 -2.23775 -4.89234 -6.36113 -2.67261 -5.4591 -7.0609 -3.2704 -5.65149 -7.83912 -3.18005 -5.87638 -8.80931 -3.4135 -5.63731 -9.75183 -3.52382 -5.54611 -10.1424 -0.324269 -3.87605 -4.84365 -0.862968 -4.1202 -5.64999 -1.407 -4.39648 -6.44227 -1.64462 -4.85622 -7.29794 -1.60782 -5.12013 -8.26179 -1.56052 -5.48041 -9.19343 -1.40961 -5.13465 -10.1195 -1.19236 -5.02587 -11.0896 -1.15553 -5.03626 -11.1972 -0.333195 -4.27475 -4.87458 -1.23999 -4.58705 -5.15775 -2.14951 -4.89684 -5.43488 -2.96141 -5.39362 -5.74155 -3.61595 -5.88574 -6.31547 -4.42665 -5.99911 -6.88986 -5.15694 -6.07149 -7.56914 -5.80946 -6.16719 -7.91786 -0.253651 -4.66215 -4.93455 -0.479265 -4.93954 -5.86844 -0.663674 -5.20122 -6.81581 -1.02109 -5.4641 -7.712 -1.61342 -5.79412 -8.447 -2.13791 -6.11638 -9.23507 -2.63026 -6.40765 -10.0553 -2.77002 -6.48772 -10.2948 -0.200678 -5.04763 -5.02728 -0.770618 -4.99823 -5.84748 -0.421675 -4.61872 -6.70434 -0.0540945 -4.10698 -7.48087 0.389544 -3.69433 -8.27643 0.241609 -3.06643 -9.04053 0.119204 -2.62438 -9.57956 -0.19302 -5.43556 -5.12448 0.701746 -5.62542 -5.52865 1.32922 -5.78148 -6.29148 1.94232 -6.01226 -7.04703 1.81473 -6.0126 -8.03885 1.58364 -6.27898 -8.92121 -0.187931 -5.82747 -5.20437 0.739502 -6.19982 -5.23932 1.64823 -6.58689 -5.39551 2.52925 -7.02788 -5.56676 3.29068 -7.55499 -5.63273 -0.133985 -6.20855 -5.3133 0.00835869 -6.26711 -6.30138 -0.211558 -6.48766 -7.25164 -0.392287 -6.60376 -7.69112 -0.0600654 -6.57433 -5.45732 0.0921985 -6.75125 -5.20953 0.109485 -0.05386 -4.6744 -0.0542821 -0.405981 -4.77027 -0.206176 -0.766616 -4.85316 -0.363596 -1.12503 -4.93536 -0.508941 -1.4872 -5.02314 -0.642324 -1.85316 -5.11417 -0.774747 -2.22026 -5.20193 -0.914759 -2.58396 -5.29202 -1.00756 -2.96656 -5.36278 -1.1218 -3.34548 -5.42085 -1.27968 -3.7022 -5.50931 -1.43981 -4.04957 -5.6263 -1.60931 -4.39818 -5.725 -1.76316 -4.75833 -5.8064 -1.93521 -5.11104 -5.8838 -2.10947 -5.45584 -5.98746 -2.29132 -5.79405 -6.09949 -2.46172 -6.14114 -6.2019 -2.6275 -6.48989 -6.30627 -2.82122 -6.8228 -6.41417 -3.01226 -7.13866 -6.56824 -3.21268 -7.44485 -6.72972 -3.41055 -7.75953 -6.87747 -3.54768 -8.10535 -7.02443 -3.66296 -8.44377 -7.20384 -3.7733 -8.75902 -7.42394 -3.97275 -9.06664 -7.5839 -4.21367 -9.33486 -7.75716 -4.82042 -9.98636 -8.21257 -5.44871 -10.6596 -8.59633 0.109485 -0.05386 -4.6744 0.653771 -0.121484 -5.51057 0.885795 -0.302652 -6.46626 0.678804 -0.694048 -7.3629 0.689476 -0.830945 -8.35343 0.749418 -0.819305 -9.35156 0.716877 -1.2044 -10.2739 0.618844 -1.50249 -11.2234 0.521311 -1.50314 -12.2186 0.570672 -1.50052 -12.8937 -0.0542821 -0.405981 -4.77027 -0.264554 -0.524229 -5.74074 -0.469057 -0.680106 -6.70711 -0.244945 -1.07749 -7.59698 -0.0679987 -1.53937 -8.46609 0.168481 -1.9349 -9.35358 0.487932 -2.50757 -10.1086 0.688473 -2.86331 -11.0214 0.920062 -3.43631 -11.8075 1.06091 -3.71293 -12.3159 -0.206176 -0.766616 -4.85316 0.295336 -1.43356 -4.30209 1.21257 -1.44932 -3.90407 2.13592 -1.47519 -3.52097 3.02722 -1.49551 -3.06801 3.95039 -1.60714 -2.70018 4.85467 -1.30745 -2.39612 5.73116 -0.834416 -2.4856 6.57354 -0.30991 -2.60924 7.00637 -0.143868 -2.81167 -0.363596 -1.12503 -4.93536 -0.587526 -2.01548 -4.53917 -1.40522 -2.46229 -4.17622 -2.29151 -2.57924 -3.72811 -3.19704 -2.73965 -3.33529 -4.05802 -2.70706 -2.8277 -4.87014 -2.49661 -2.28349 -5.59077 -1.84635 -2.04297 -6.25948 -1.11948 -1.88651 -6.55233 -0.844048 -1.82765 -0.508941 -1.4872 -5.02314 -1.25339 -1.47844 -5.69076 -1.89041 -1.55497 -6.4578 -2.56965 -1.63607 -7.18723 -3.16971 -1.74265 -7.98005 -3.78944 -1.84643 -8.75797 -3.65308 -2.01166 -9.73476 -3.65907 -2.15447 -10.7245 -3.88654 -1.8899 -11.6616 -3.90301 -1.84015 -11.9524 -0.642324 -1.85316 -5.11417 -1.50222 -1.63618 -5.57623 -2.2672 -1.48377 -6.202 -2.97882 -1.39517 -6.89895 -3.54776 -1.12729 -7.67648 -3.94404 -0.752296 -8.51453 -4.07932 -0.538297 -9.48196 -4.25976 -0.373368 -10.4516 -4.42413 -0.353985 -11.4378 -4.45051 -0.346557 -11.6071 -0.774747 -2.22026 -5.20193 -0.296696 -3.0985 -5.18894 0.328403 -3.87605 -5.25718 0.876175 -4.71246 -5.27636 1.28162 -5.62289 -5.35847 1.53749 -6.57397 -5.53157 1.86958 -7.43928 -5.90702 2.00153 -8.40762 -6.11891 2.28278 -9.33237 -6.3753 2.29077 -9.3618 -6.3849 -0.914759 -2.58396 -5.29202 -1.3579 -2.16113 -6.08249 -1.73823 -1.71483 -6.89253 -2.17668 -1.24444 -7.65836 -1.94448 -1.31454 -8.62849 -1.67907 -1.36352 -9.59139 -1.77754 -1.81683 -10.4773 -1.86411 -2.08862 -11.4357 -1.86795 -2.19089 -12.304 -1.00756 -2.96656 -5.36278 -1.98674 -2.76477 -5.34073 -2.85286 -2.30381 -5.53397 -3.58542 -1.8593 -6.0495 -3.85867 -1.90632 -7.0103 -4.13183 -2.02383 -7.96506 -4.21732 -2.13278 -8.95543 -4.29974 -2.24132 -9.9461 -4.17652 -2.27385 -10.6291 -1.1218 -3.34548 -5.42085 -0.70062 -3.83023 -6.18741 -0.494322 -4.167 -7.10612 -0.30495 -4.35201 -8.07044 -0.179708 -4.5566 -9.04124 0.2127 -4.81272 -9.92466 0.778725 -4.65141 -10.7331 0.670287 -4.51414 -11.7177 0.630568 -4.45351 -12.2015 -1.27968 -3.7022 -5.50931 -0.737004 -4.41353 -5.06265 -0.269408 -5.18223 -4.62623 0.353771 -5.95404 -4.49993 0.769503 -6.85713 -4.39226 1.63892 -7.35097 -4.40787 2.50462 -7.84882 -4.45974 3.0897 -8.65193 -4.57245 3.25101 -8.84537 -4.57749 -1.43981 -4.04957 -5.6263 -1.56535 -4.58405 -6.46211 -1.5943 -4.39171 -7.44301 -1.77867 -4.19716 -8.40642 -1.91388 -4.26646 -9.39481 -2.07088 -4.17485 -10.3782 -2.07953 -3.76243 -11.2891 -1.64591 -3.38403 -12.077 -1.60931 -4.39818 -5.725 -1.00619 -5.08876 -5.32581 -0.423614 -5.81811 -4.96713 0.424196 -6.32873 -4.82401 0.86787 -7.2102 -4.66226 1.3204 -8.10105 -4.62217 1.69393 -9.02347 -4.5241 2.02443 -9.58425 -4.53456 -1.76316 -4.75833 -5.8064 -1.32988 -5.65762 -5.74689 -0.939242 -6.57792 -5.72569 -0.433441 -7.4387 -5.66882 0.279729 -8.13887 -5.63505 1.02463 -8.80566 -5.65773 1.74436 -9.48096 -5.49661 1.88672 -9.7036 -5.52004 -1.93521 -5.11104 -5.8838 -1.8528 -5.74344 -5.11356 -1.8063 -6.59111 -4.58507 -1.85081 -7.45539 -4.08404 -1.71096 -8.36587 -3.69486 -1.55193 -9.28611 -3.33727 -1.53732 -10.0805 -3.23297 -2.10947 -5.45584 -5.98746 -2.6596 -6.12024 -5.48155 -2.82872 -7.08198 -5.26602 -2.99151 -8.05323 -5.43972 -3.21755 -8.86034 -5.98514 -3.7946 -9.258 -6.6985 -3.92278 -9.33667 -6.87951 -2.29132 -5.79405 -6.09949 -1.85768 -5.73357 -6.99855 -1.40806 -5.68318 -7.89034 -1.88917 -5.99299 -8.71043 -2.38564 -6.31956 -9.51472 -2.67423 -6.42829 -9.94961 -2.46172 -6.14114 -6.2019 -2.2093 -6.88838 -5.58715 -1.9544 -7.73284 -5.11608 -1.7006 -8.58258 -5.57818 -1.49321 -9.13167 -5.84481 -2.6275 -6.48989 -6.30627 -2.38488 -7.20082 -5.64619 -1.98054 -8.0312 -5.26281 -1.90009 -8.42587 -4.97759 -2.82122 -6.8228 -6.41417 -3.05775 -7.3938 -5.68198 0.126818 -0.0606082 -4.89736 -0.246153 -0.00782378 -5.03192 -0.608319 0.0771661 -5.17893 -0.966667 0.174598 -5.32757 -1.30321 0.315368 -5.49166 -1.63965 0.456697 -5.65546 -1.99466 0.573113 -5.79835 -2.35025 0.719377 -5.90864 -2.7078 0.864785 -6.01358 -3.0687 0.97969 -6.14222 -3.41639 1.09347 -6.30397 -3.77128 1.15298 -6.47866 -4.12242 1.20712 -6.66242 -4.49188 1.26372 -6.80488 -4.87389 1.32092 -6.90878 -5.25511 1.37785 -7.01569 -5.63065 1.44753 -7.13452 -6.00023 1.51217 -7.2732 -6.35969 1.55747 -7.44271 -6.7357 1.62345 -7.56215 -7.10722 1.72088 -7.67386 -7.45985 1.78851 -7.85014 -7.82443 1.88907 -7.98041 -8.18745 1.9629 -8.13131 -8.5505 2.03664 -8.28214 -9.43358 2.09205 -8.74809 -10.3599 1.94665 -9.09554 -10.8626 1.88792 -9.27607 0.126818 -0.0606082 -4.89736 -0.0466825 0.40488 -5.76524 -0.283138 0.732044 -6.68015 -0.432949 1.04543 -7.61788 -0.451456 1.08967 -8.61673 -0.263967 0.936865 -9.58704 -0.249188 1.1609 -10.5615 -0.585637 1.08295 -11.5 -1.0095 1.09829 -12.4056 -1.24758 1.15098 -12.9844 -0.246153 -0.00782378 -5.03192 -0.398786 0.326637 -5.96189 -0.348605 0.707787 -6.88504 -0.190898 0.826436 -7.86537 -0.493281 0.8104 -8.81842 -0.565905 0.702343 -9.80991 -0.493843 0.668312 -10.8067 -0.342154 0.603894 -11.7931 -0.295537 0.879707 -12.7531 -0.24279 1.06671 -13.2571 -0.608319 0.0771661 -5.17893 -1.15306 -0.736895 -5.38034 -1.7176 -1.55409 -5.49645 -2.39077 -2.24726 -5.75406 -2.84979 -3.13523 -5.72578 -3.48493 -3.89918 -5.61184 -4.39725 -4.19191 -5.89815 -5.00151 -3.97691 -6.66539 -5.24123 -3.70425 -7.59715 -5.34959 -3.58422 -8.00873 -0.966667 0.174598 -5.32757 -0.962988 1.09731 -5.71305 -0.969006 2.02325 -6.09067 -0.796007 2.81145 -6.68127 -0.574522 3.5513 -7.31655 -0.602169 3.90975 -8.24968 -0.745628 4.03186 -9.23178 -0.844852 4.08395 -10.2255 -1.00196 4.34465 -11.178 -0.923437 4.36804 -11.5005 -1.30321 0.315368 -5.49166 -2.20562 -0.0992376 -5.37439 -2.84302 -0.860484 -5.25512 -3.15166 -1.80155 -5.1168 -3.47233 -2.74692 -5.17553 -3.34726 -3.71302 -5.40141 -3.31375 -4.25976 -6.23804 -3.88799 -4.60205 -6.98174 -4.15579 -5.19251 -7.74308 -4.2462 -5.30081 -7.89813 -1.63965 0.456697 -5.65546 -2.07273 1.35275 -5.55787 -2.42506 2.27659 -5.40823 -2.25272 3.26026 -5.35636 -2.31607 4.24714 -5.20783 -1.9385 5.05021 -5.66883 -1.14521 5.62029 -5.88261 -0.278847 6.11826 -5.92049 0.590418 6.61169 -5.9505 0.652236 6.64536 -5.95173 -1.99466 0.573113 -5.79835 -2.91315 0.330426 -6.11055 -3.74941 -0.153158 -6.36904 -4.55605 -0.680291 -6.63639 -5.38957 -1.15078 -6.92599 -6.23034 -1.50595 -7.33462 -7.1069 -1.85768 -7.66314 -7.90943 -2.27087 -8.09351 -8.55132 -2.61765 -8.64059 -2.35025 0.719377 -5.90864 -1.91654 1.45471 -6.42939 -1.4136 1.8891 -7.17663 -1.44529 2.10286 -8.153 -1.68813 1.73388 -9.05015 -1.80074 1.17071 -9.86878 -1.27711 0.829581 -10.6495 -0.766961 0.549815 -11.4628 -0.310661 0.396208 -12.0117 -2.7078 0.864785 -6.01358 -3.43152 0.497169 -5.42955 -3.74236 -0.0225381 -4.63376 -3.91668 -0.669286 -3.89125 -3.60568 -1.33741 -3.21531 -3.41811 -2.26166 -2.88276 -2.93481 -3.07217 -2.55186 -2.70918 -3.87839 -2.00496 -2.51696 -4.31594 -1.79973 -3.0687 0.97969 -6.14222 -3.20119 1.69304 -6.83039 -3.16839 2.46641 -7.4635 -2.54929 2.92401 -8.10172 -1.90386 2.57354 -8.78038 -1.32159 2.21151 -9.50833 -0.949372 2.22691 -10.4363 -0.