<?xml version="1.0"?><VTKFile type="PolyData" version="0.1" byte_order="LittleEndian">
<PolyData>
<Piece NumberOfLines="727" NumberOfPoints="7813">
<PointData Scalars=" PointData">
<DataArray type="Float32" Name="time" NumberOfComponents="1" format="ascii" >
0 0.364079 0.412439 0.590776 0.729169 0.982294 1.1221 1.42256 1.59076 1.78821 2.0649 2.34112 2.51354 2.66378 2.74407 2.94663 3.04217 3.16462 3.29531 3.38388 3.50758 3.62385 3.67791 3.82904 4.06308 4.2911 4.47263 4.55222 4.75545 5.02727 5.13251 5.16531 5.41473 5.59185 5.72827 5.90722 6.10667 6.12928 6.44271 6.81448 6.94756 7.23316 7.30611 7.57699 7.69245 7.88365 8.0987 8.28139 8.55853 8.73433 8.85655 9.03643 9.18763 9.37207 9.5625 9.93451 10.105 10.3267 10.3806 10.5748 10.8758 11.0481 11.2021 11.4962 11.7363 11.8702 11.9201 11.9967 12.2162 12.3169 12.4815 12.8611 13.1268 13.2769 13.3059 13.4529 13.81 14.0492 14.3443 14.5917 14.8815 15.1397 15.3528 15.6041 15.7774 16.1909 16.3174 16.4496 16.5508 16.7866 17.066 17.3447 17.8161 17.9868 18.0596 18.2368 18.7501 19.2072 19.4195 19.5631 19.625 19.9348 20.225 20.5649 20.6804 20.8451 21.3104 21.5316 21.6931 22.1121 22.3597 22.4553 22.7241 23.0525 23.369 23.4959 23.7323 23.8455 23.865 24.1198 24.3293 24.4987 24.9488 25.2121 25.4373 25.6654 26.1075 26.384 26.6988 27.0819 27.5854 27.9593 28.1657 28.4739 28.9238 29.0561 29.4348 29.8461 30 4.21342 4.59516 5.02191 5.50572 6.06423 6.72482 7.53331 8.57564 10.0447 12.5561 21 4.267 4.64875 5.0755 5.5593 6.11782 6.77841 7.5869 8.62922 10.0983 12.6097 21 4.46468 4.84642 5.27317 5.75698 6.3155 6.97608 7.78458 8.8269 10.296 12.8074 30 4.61815 4.9999 5.42665 5.91046 6.46897 7.12956 7.93805 8.98037 10.4495 12.9609 30 4.89902 5.28076 5.70751 6.19132 6.74984 7.41042 8.21891 9.26124 10.7303 13.2417 30 5.05423 5.43597 5.86272 6.34653 6.90505 7.56564 8.37413 9.41645 10.8855 13.3969 30 5.38803 5.76977 6.19652 6.68033 7.23885 7.89943 8.70793 9.75025 11.2193 13.7307 30 5.57503 5.72178 5.87229 6.02676 6.1854 6.34846 6.51617 6.68882 6.8667 7.05014 7.23949 7.43516 7.63758 7.84723 8.06465 8.29043 8.52524 8.76984 9.02508 9.29193 9.57148 9.86502 10.174 10.5002 10.8456 11.2125 11.604 12.0234 12.4751 13.7849 15.4735 17.8534 21.9218 30 7.74147 8.12321 8.54996 9.03377 9.59229 10.2529 11.0614 12.1037 13.5728 16.0842 30 7.95493 8.33667 8.76342 9.24723 9.80575 10.4663 11.2748 12.3172 13.7862 16.2976 30 8.17645 8.55819 8.98494 9.46875 10.0273 10.6879 11.4963 12.5387 14 16.5037 30 8.40666 8.7884 9.21515 9.69896 10.2575 10.9181 11.7266 12.7689 14.238 16.7494 30 8.64627 9.02801 9.45476 9.93857 10.4971 11.1577 11.9662 13.0085 14.4776 16.989 30 8.89607 9.27782 9.70457 10.1884 10.7469 11.4075 12.216 13.2583 14.7274 17.2388 30 9.15699 9.53873 9.96548 10.4493 11.0078 11.6684 12.4769 13.5192 14.9883 17.4997 30 9.43004 9.81178 10.2385 10.7223 11.2809 11.9414 12.7499 13.7923 15.2613 17.7727 30 9.71642 10.0982 10.5249 11.0087 11.5672 12.2278 13.0363 14.0786 15.5477 18.0591 30 10.0175 10.3992 10.826 11.3098 11.8683 12.5289 13.3374 14.3797 15.8488 18.3602 30 10.3348 10.7166 11.1433 11.6271 12.1857 12.8462 13.6547 14.6971 16.1661 18.6775 30 10.6703 11.0521 11.4788 11.9626 12.5211 13.1817 13.9902 15.0326 16.5016 19.013 30 11.0262 11.4079 11.8347 12.3185 12.877 13.5376 14.3461 15.3884 16.8575 19.3689 30 11.405 11.7867 12.2135 12.6973 13.2558 13.9164 14.7249 15.7672 17.2363 19.7477 30 11.8099 12.1917 12.6184 13.1022 13.6608 14.3213 15.1298 16.1722 17.6412 20.1526 30 12.2449 12.6267 13.0534 13.5372 14.0957 14.7563 15.5648 16.6071 18.0762 20.5876 30 12.7147 13.0965 13.5232 14.007 14.5656 15.2261 16.0346 17.077 18.546 21.0574 30 13.2255 13.6072 14.034 14.5178 15.0763 15.7369 16.5454 17.5877 19.0568 21.5682 30 13.7849 14.1666 14.5934 15.0772 15.6357 16.2963 17.1048 18.1471 19.6162 22.1276 30 14.4033 14.7851 15.2118 15.6956 16.2541 16.9147 17.7232 18.7655 20.2346 22.746 30 15.0946 15.4764 15.9031 16.3869 16.9455 17.606 18.4145 19.4569 20.9259 23.4373 30 15.8784 16.2602 16.6869 17.1707 17.7292 18.3898 19.1983 20.2406 21.7097 24.2211 30 16.7832 17.165 17.5917 18.0755 18.634 19.2946 20.1031 21.1454 22.6145 25.1259 30 17.8534 18.2351 18.6619 19.1457 19.7042 20.3648 21.1733 22.2156 23.6847 26.1961 30 19.1631 19.5449 19.9716 20.4554 21.0139 21.6745 22.483 23.5253 24.9944 27.5058 30 20.8517 21.2334 21.6602 22.144 22.7025 23.3631 24.1716 25.2139 26.683 29.1944 30 23.2316 23.6133 24.0401 24.5239 25.0824 25.743 26.5515 27.5938 29.0629 30 27.3001 27.6818 28.1086 28.5924 29.1509 29.8115 30 5.79466 6.1764 6.60315 7.08696 7.64548 8.30606 9.11455 10.1569 11.626 14.1374 30 6.10264 6.48438 6.91113 7.39494 7.95346 8.61404 9.42254 10.4649 11.9339 14.4453 30 6.41037 6.79211 7.21886 7.70267 8.26119 8.92177 9.73026 10.7726 12.2417 14.7531 30 6.60259 6.98433 7.41108 7.89489 8.45341 9.11399 9.92249 10.9648 12.4339 14.9453 30 6.77016 6.91691 7.06742 7.22189 7.38054 7.54359 7.7113 7.88395 8.06183 8.24527 8.43462 8.6303 8.83271 9.04236 9.25978 9.48556 9.72037 9.96497 10.2202 10.4871 10.7666 11.0602 11.3691 11.6953 12.0407 12.4077 12.7991 13.2185 13.6703 14.98 16.6686 19.0485 23.117 30 8.9366 9.31834 9.74509 10.2289 10.7874 11.448 12.2565 13.2988 14.7679 17.2793 30 9.15007 9.53181 9.95856 10.4424 11.0009 11.6615 12.47 13.5123 14.9814 17.4928 30 9.37158 9.75333 10.1801 10.6639 11.2224 11.883 12.6915 13.7338 15.2029 17.7143 30 9.60179 9.98353 10.4103 10.8941 11.4526 12.1132 12.9217 13.964 15.4331 17.9445 30 9.8414 10.2231 10.6499 11.1337 11.6922 12.3528 13.1613 14.2036 15.6727 18.1841 30 10.0912 10.4729 10.8997 11.3835 11.942 12.6026 13.4111 14.4534 15.9225 18.4339 30 10.3521 10.7339 11.1606 11.6444 12.2029 12.8635 13.672 14.7143 16.1834 18.6948 30 10.6252 11.0069 11.4337 11.9175 12.476 13.1366 13.9451 14.9874 16.4565 18.9679 30 10.9115 11.2933 11.72 12.2038 12.7624 13.423 14.2314 15.2738 16.7428 19.2542 30 11.2126 11.5944 12.0211 12.5049 13.0634 13.724 14.5325 15.5748 17.0439 19.5553 30 11.53 11.9117 12.3385 12.8223 13.3808 14.0414 14.8499 15.8922 17.3613 19.8727 30 11.8655 12.2472 12.674 13.1578 13.7163 14.3769 15.1854 16.2277 17.6968 20.2082 30 12.2213 12.603 13.0298 13.5136 14.0721 14.7327 15.5412 16.5835 18.0526 20.564 30 12.6001 12.9819 13.4086 13.8924 14.4509 15.1115 15.92 16.9623 18.4314 20.9428 30 13.0051 13.3868 13.8136 14.2974 14.8559 15.5165 16.325 17.3673 18.8364 21.3478 30 13.4401 13.8218 14.2485 14.7324 15.2909 15.9515 16.76 17.8023 19.2714 21.7828 30 13.9099 14.2916 14.7184 15.2022 15.7607 16.4213 17.2298 18.2721 19.7412 22.2526 30 14.4206 14.8023 15.2291 15.7129 16.2714 16.932 17.7405 18.7828 20.2519 22.7633 30 14.98 15.3618 15.7885 16.2723 16.8308 17.4914 18.2999 19.3422 20.8113 23.3227 30 15.5984 15.9802 16.4069 16.8907 17.4493 18.1098 18.9183 19.9607 21.4297 23.9411 30 16.2898 16.6715 17.0983 17.5821 18.1406 18.8012 19.6097 20.652 22.1211 24.6325 30 17.0735 17.4553 17.882 18.3658 18.9244 19.585 20.3934 21.4358 22.9048 25.4162 30 17.9783 18.3601 18.7868 19.2706 19.8292 20.4897 21.2982 22.3406 23.8096 26.321 30 19.0485 19.4302 19.857 20.3408 20.8993 21.5599 22.3684 23.4107 24.8798 27.3912 30 20.3582 20.74 21.1667 21.6506 22.2091 22.8697 23.6781 24.7205 26.1895 28.7009 30 22.0468 22.4286 22.8553 23.3391 23.8976 24.5582 25.3667 26.409 27.8781 30 24.4267 24.8085 25.2352 25.719 26.2775 26.9381 27.7466 28.7889 30 28.4952 28.8769 29.3037 29.7875 30 6.85975 7.24149 7.66824 8.15205 8.71057 9.37115 10.1796 11.222 12.691 15.2024 30 7.08586 7.23261 7.38311 7.53759 7.69623 7.85929 8.027 8.19965 8.37753 8.56096 8.75032 8.94599 9.14841 9.35806 9.57548 9.80126 10.0361 10.2807 10.5359 10.8028 11.0823 11.3759 11.6848 12.011 12.3564 12.7234 13.1148 13.5342 13.986 15.2957 16.9843 19.3642 23.4327 30 9.2523 9.63404 10.0608 10.5446 11.1031 11.7637 12.5722 13.6145 15.0836 17.595 30 9.46576 9.8475 10.2743 10.7581 11.3166 11.9772 12.7857 13.828 15.2971 17.8085 30 9.68728 10.069 10.4958 10.9796 11.5381 12.1987 13.0072 14.0495 15.5186 18.03 30 9.91749 10.2992 10.726 11.2098 11.7683 12.4289 13.2374 14.2797 15.7488 18.2602 30 10.1571 10.5388 10.9656 11.4494 12.0079 12.6685 13.477 14.5193 15.9884 18.4998 30 10.4069 10.7886 11.2154 11.6992 12.2577 12.9183 13.7268 14.7691 16.2382 18.7496 30 10.6678 11.0496 11.4763 11.9601 12.5186 13.1792 13.9877 15.03 16.4991 19.0105 30 10.9409 11.3226 11.7494 12.2332 12.7917 13.4523 14.2608 15.3031 16.7722 19.2836 30 11.2272 11.609 12.0357 12.5195 13.0781 13.7386 14.5471 15.5895 17.0585 19.5699 30 11.5283 11.9101 12.3368 12.8206 13.3791 14.0397 14.8482 15.8905 17.3596 19.871 30 11.8457 12.2274 12.6542 13.138 13.6965 14.3571 15.1656 16.2079 17.677 20.1884 30 12.1812 12.5629 12.9897 13.4735 14.032 14.6926 15.5011 16.5434 18.0125 20.5239 30 12.537 12.9187 13.3455 13.8293 14.3878 15.0484 15.8569 16.8992 18.3683 20.8797 30 12.9158 13.2976 13.7243 14.2081 14.7666 15.4272 16.2357 17.278 18.7471 21.2585 30 13.3208 13.7025 14.1293 14.6131 15.1716 15.8322 16.6407 17.683 19.1521 21.6635 30 13.7558 14.1375 14.5642 15.0481 15.6066 16.2672 17.0756 18.118 19.5871 22.0985 30 14.2256 14.6073 15.0341 15.5179 16.0764 16.737 17.5455 18.5878 20.0569 22.5683 30 14.7363 15.118 15.5448 16.0286 16.5871 17.2477 18.0562 19.0985 20.5676 23.079 30 15.2957 15.6775 16.1042 16.588 17.1465 17.8071 18.6156 19.6579 21.127 23.6384 30 15.9141 16.2959 16.7226 17.2064 17.765 18.4255 19.234 20.2764 21.7454 24.2568 30 16.6055 16.9872 17.414 17.8978 18.4563 19.1169 19.9254 20.9677 22.4368 24.9482 30 17.3892 17.771 18.1977 18.6815 19.2401 19.9006 20.7091 21.7515 23.2205 25.7319 30 18.294 18.6758 19.1025 19.5863 20.1449 20.8054 21.6139 22.6563 24.1253 26.6367 30 19.3642 19.7459 20.1727 20.6565 21.215 21.8756 22.6841 23.7264 25.1955 27.7069 30 20.6739 21.0557 21.4824 21.9662 22.5248 23.1853 23.9938 25.0362 26.5052 29.0166 30 22.3625 22.7443 23.171 23.6548 24.2133 24.8739 25.6824 26.7247 28.1938 30 24.7424 25.1242 25.5509 26.0347 26.5932 27.2538 28.0623 29.1046 30 28.8109 29.1926 29.6194 30 7.19254 7.57428 8.00104 8.48484 9.04336 9.70395 10.5124 11.5548 13.0238 15.5352 30 7.32934 7.71109 8.13784 8.62165 9.18016 9.84075 10.6492 11.6916 13.1606 15.672 30 7.4754 7.85715 8.2839 8.76771 9.32622 9.98681 10.7953 11.8376 13.3067 15.8181 30 7.57442 7.72127 7.87208 8.02708 8.18651 8.35063 8.51973 8.69411 8.87411 9.06012 9.25254 9.45184 9.65852 9.87315 10.0964 10.3289 10.5715 10.8252 11.0909 11.37 11.6637 11.9738 12.3021 12.6509 13.0231 13.4218 13.8512 15.0963 16.7015 18.9638 22.8314 30 9.7648 10.1465 10.5733 11.0571 11.6156 12.2762 13.0847 14.127 15.5961 18.1075 30 9.98364 10.3654 10.7921 11.2759 11.8345 12.495 13.3035 14.3459 15.8149 18.3263 30 10.2114 10.5932 11.0199 11.5037 12.0622 12.7228 13.5313 14.5736 16.0427 18.5541 30 10.4489 10.8306 11.2574 11.7412 12.2997 12.9603 13.7688 14.8111 16.2802 18.7916 30 10.6969 11.0787 11.5054 11.9892 12.5477 13.2083 14.0168 15.0591 16.5282 19.0396 30 10.9565 11.3382 11.765 12.2488 12.8073 13.4679 14.2764 15.3187 16.7878 19.2992 30 11.2287 11.6105 12.0372 12.521 13.0795 13.7401 14.5486 15.5909 17.06 19.5714 30 11.5149 11.8967 12.3234 12.8072 13.3657 14.0263 14.8348 15.8771 17.3462 19.8576 30 11.8166 12.1983 12.6251 13.1089 13.6674 14.328 15.1365 16.1788 17.6479 20.1593 30 12.1355 12.5173 12.944 13.4278 13.9863 14.6469 15.4554 16.4977 17.9668 20.4782 30 12.4738 12.8555 13.2823 13.7661 14.3246 14.9852 15.7937 16.836 18.3051 20.8165 30 12.8339 13.2156 13.6424 14.1262 14.6847 15.3453 16.1538 17.1961 18.6652 21.1766 30 13.2189 13.6006 14.0274 14.5112 15.0697 15.7303 16.5388 17.5811 19.0502 21.5616 30 13.6324 14.0141 14.4409 14.9247 15.4832 16.1438 16.9523 17.9946 19.4637 21.9751 30 14.079 14.4607 14.8875 15.3713 15.9298 16.5904 17.3989 18.4412 19.9103 22.4217 30 14.5645 14.9462 15.373 15.8568 16.4153 17.0759 17.8844 18.9267 20.3958 22.9072 30 15.0963 15.478 15.9048 16.3886 16.9471 17.6077 18.4162 19.4585 20.9276 23.439 30 15.6842 16.0659 16.4927 16.9765 17.535 18.1956 19.0041 20.0464 21.5155 24.0269 30 16.3414 16.7231 17.1498 17.6337 18.1922 18.8528 19.6613 20.7036 22.1727 24.6841 30 17.0864 17.4682 17.8949 18.3787 18.9372 19.5978 20.4063 21.4486 22.9177 25.4291 30 17.9465 18.3283 18.755 19.2388 19.7974 20.4579 21.2664 22.3088 23.7778 26.2892 30 18.9638 19.3456 19.7723 20.2561 20.8147 21.4752 22.2837 23.3261 24.7951 27.3065 30 20.2089 20.5907 21.0174 21.5012 22.0597 22.7203 23.5288 24.5711 26.0402 28.5516 30 21.8141 22.1958 22.6226 23.1064 23.6649 24.3255 25.134 26.1763 27.6454 30 24.0765 24.4582 24.885 25.3688 25.9273 26.5879 27.3964 28.4387 29.9078 30 27.944 28.3258 28.7525 29.2363 29.7949 30 7.71277 8.09451 8.52126 9.00507 9.56358 10.2242 11.0327 12.075 13.5441 16.0555 30 7.84285 8.22459 8.65134 9.13515 9.69366 10.3542 11.1627 12.2051 13.6741 16.1855 30 7.90333 8.28507 8.71182 9.19563 9.75415 10.4147 11.2232 12.2656 13.7346 16.246 30 8.07252 8.45426 8.88101 9.36482 9.92334 10.5839 11.3924 12.4347 13.9038 16.4152 30 8.33467 8.71641 9.14316 9.62697 10.1855 10.8461 11.6546 12.6969 14.166 16.6774 30 8.59028 8.73729 8.88862 9.04454 9.20533 9.37131 9.54282 9.72025 9.90402 10.0946 10.2925 10.4983 10.7127 10.9365 11.1704 11.4154 11.6727 11.9435 12.2294 12.5322 12.8538 13.197 13.5646 13.9606 15.1086 16.5887 18.6748 22.241 30 10.8234 11.2051 11.6319 12.1157 12.6742 13.3348 14.1433 15.1856 16.6547 19.1661 30 11.0521 11.4338 11.8606 12.3444 12.9029 13.5635 14.372 15.4143 16.8834 19.3948 30 11.2914 11.6732 12.0999 12.5837 13.1422 13.8028 14.6113 15.6536 17.1227 19.6341 30 11.5424 11.9242 12.3509 12.8347 13.3933 14.0538 14.8623 15.9047 17.3737 19.8851 30 11.8063 12.1881 12.6148 13.0986 13.6572 14.3177 15.1262 16.1686 17.6376 20.149 30 12.0845 12.4663 12.893 13.3768 13.9353 14.5959 15.4044 16.4467 17.9158 20.4272 30 12.3786 12.7603 13.1871 13.6709 14.2294 14.89 15.6985 16.7408 18.2099 20.7213 30 12.6905 13.0722 13.499 13.9828 14.5413 15.2019 16.0104 17.0527 18.5218 21 30 13.0225 13.4043 13.831 14.3148 14.8734 15.5339 16.3424 17.3848 18.8538 21.3652 30 13.3775 13.7592 14.186 14.6698 15.2283 15.8889 16.6974 17.7397 19.2088 21.7202 30 13.7588 14.1405 14.5673 15.0511 15.6096 16.2702 17.0787 18.121 19.5901 22.1015 30 14.1706 14.5523 14.9791 15.4629 16.0214 16.682 17.4905 18.5328 20.0019 22.5133 30 14.6183 15 15.4268 15.9106 16.4691 17.1297 17.9382 18.9805 20.4496 22.961 30 15.1086 15.4904 15.9171 16.4009 16.9594 17.62 18.4285 19.4709 20.9399 23.4513 30 15.6507 16.0324 16.4592 16.943 17.5015 18.1621 18.9706 20.0129 21.482 23.9934 30 16.2567 16.6384 17.0652 17.549 18.1075 18.7681 19.5766 20.6189 22.088 24.5994 30 16.9437 17.3254 17.7522 18.236 18.7945 19.4551 20.2636 21.3059 22.775 25.2864 30 17.7368 18.1185 18.5453 19.0291 19.5876 20.2482 21.0567 22.099 23.5681 26.0795 30 18.6748 19.0566 19.4833 19.9671 20.5256 21.1862 21.9947 23.037 24.5061 27.0175 30 19.8229 20.2046 20.6314 21.1152 21.6737 22.3343 23.1428 24.1851 25.6542 28.1656 30 21.303 21.6847 22.1115 22.5953 23.1538 23.8144 24.6229 25.6652 27.1343 29.6457 30 23.3891 23.7708 24.1976 24.6814 25.2399 25.9005 26.709 27.7513 29.2204 30 26.9553 27.337 27.7638 28.2476 28.8061 29.4667 30 8.7939 9.17564 9.6024 10.0862 10.6447 11.3053 12.1138 13.1561 14.6252 17.1366 30 8.88321 9.26495 9.6917 10.1755 10.734 11.3946 12.2031 13.2454 14.7145 17.2259 30 9.11138 9.49312 9.91987 10.4037 10.9622 11.6228 12.4313 13.4736 14.9427 17.4541 30 9.41678 9.79852 10.2253 10.7091 11.2676 11.9282 12.7367 13.779 15.2481 17.7595 30 9.53511 9.91685 10.3436 10.8274 11.3859 12.0465 12.855 13.8973 15.3664 17.8778 30 9.57199 9.95373 10.3805 10.8643 11.4228 12.0834 12.8919 13.9342 15.4033 17.9147 30 9.8526 10.2343 10.6611 11.1449 11.7034 12.364 13.1725 14.2148 15.6839 18.1953 30 10.052 10.4338 10.8605 11.3443 11.9028 12.5634 13.3719 14.4142 15.8833 18.3947 30 10.2057 10.5874 11.0142 11.498 12.0565 12.7171 13.5256 14.5679 16.037 18.5484 30 10.4074 10.7891 11.2159 11.6997 12.2582 12.9188 13.7273 14.7696 16.2387 18.7501 30 10.6323 10.7792 10.93 11.085 11.2444 11.4085 11.5776 11.752 11.932 12.118 12.3104 12.5097 12.7164 12.931 13.1543 13.3868 13.6294 13.8831 14.1488 14.4279 14.7216 15.0317 15.36 15.7088 16.081 16.4797 16.9091 18.1542 19.7594 22.0217 25.8893 30 12.8227 13.2044 13.6312 14.115 14.6735 15.3341 16.1426 17.1849 18.654 21.1654 30 13.0415 13.4233 13.85 14.3338 14.8923 15.5529 16.3614 17.4038 18.8728 21.3842 30 13.2693 13.651 14.0778 14.5616 15.1201 15.7807 16.5892 17.6315 19.1006 21.612 30 13.5068 13.8885 14.3153 14.7991 15.3576 16.0182 16.8267 17.869 19.3381 21.8495 30 13.7548 14.1365 14.5633 15.0471 15.6056 16.2662 17.0747 18.117 19.5861 22.0975 30 14.0144 14.3961 14.8229 15.3067 15.8652 16.5258 17.3343 18.3766 19.8457 22.3571 30 14.2866 14.6683 15.0951 15.5789 16.1374 16.798 17.6065 18.6488 20.1179 22.6293 30 14.5728 14.9546 15.3813 15.8651 16.4236 17.0842 17.8927 18.935 20.4041 22.9155 30 14.8745 15.2562 15.683 16.1668 16.7253 17.3859 18.1944 19.2367 20.7058 23.2172 30 15.1934 15.5752 16.0019 16.4857 17.0442 17.7048 18.5133 19.5556 21.0247 23.5361 30 15.5317 15.9134 16.3402 16.824 17.3825 18.0431 18.8516 19.8939 21.363 23.8744 30 15.8918 16.2735 16.7003 17.1841 17.7426 18.4032 19.2117 20.254 21.7231 24.2345 30 16.2768 16.6585 17.0852 17.5691 18.1276 18.7882 19.5966 20.639 22.108 24.6195 30 16.6903 17.072 17.4987 17.9826 18.5411 19.2017 20.0101 21.0525 22.5215 25.033 30 17.1369 17.5186 17.9454 18.4292 18.9877 19.6483 20.4568 21.4991 22.9682 25.4796 30 17.6224 18.0041 18.4309 18.9147 19.4732 20.1338 20.9423 21.9846 23.4537 25.9651 30 18.1542 18.5359 18.9627 19.4465 20.005 20.6656 21.4741 22.5164 23.9855 26.4969 30 18.742 19.1238 19.5505 20.0343 20.5929 21.2535 22.0619 23.1043 24.5733 27.0847 30 19.3992 19.781 20.2077 20.6915 21.2501 21.9106 22.7191 23.7615 25.2305 27.7419 30 20.1443 20.5261 20.9528 21.4366 21.9951 22.6557 23.4642 24.5065 25.9756 28.487 30 21.0044 21.3862 21.8129 22.2967 22.8552 23.5158 24.3243 25.3666 26.8357 29.3471 30 22.0217 22.4035 22.8302 23.314 23.8725 24.5331 25.3416 26.3839 27.853 30 23.2668 23.6485 24.0753 24.5591 25.1176 25.7782 26.5867 27.629 29.0981 30 24.872 25.2537 25.6805 26.1643 26.7228 27.3834 28.1919 29.2342 30 27.1344 27.5161 27.9429 28.4267 28.9852 29.6458 30 10.6578 11.0396 11.4663 11.9501 12.5086 13.1692 13.9777 15.02 16.4891 19.0005 30 11.0116 11.1585 11.3095 11.4648 11.6247 11.7894 11.9592 12.1345 12.3157 12.5031 12.6973 12.8986 13.1076 13.325 13.5515 13.7879 14.0349 14.2938 14.5656 14.8517 15.1537 15.4735 15.8133 16.1757 16.5641 16.9824 18.1951 19.7586 21.9622 25.7293 30 13.2153 13.597 14.0237 14.5076 15.0661 15.7267 16.5351 17.5775 19.0465 21.558 30 13.4371 13.8189 14.2456 14.7294 15.2879 15.9485 16.757 17.7993 19.2684 21.7798 30 13.6684 14.0502 14.4769 14.9607 15.5192 16.1798 16.9883 18.0306 19.4997 22.0111 30 13.91 14.2917 14.7185 15.2023 15.7608 16.4214 17.2299 18.2722 19.7413 22.2527 30 14.1628 14.5446 14.9713 15.4551 16.0136 16.6742 17.4827 18.525 19.9941 22.5055 30 14.428 14.8097 15.2365 15.7203 16.2788 16.9394 17.7479 18.7902 20.2593 22.7707 30 14.7068 15.0885 15.5152 15.9991 16.5576 17.2182 18.0266 19.069 20.5381 23.0495 30 15.0006 15.3823 15.8091 16.2929 16.8514 17.512 18.3205 19.3628 20.8319 23.3433 30 15.3112 15.693 16.1197 16.6035 17.1621 17.8226 18.6311 19.6735 21.1425 23.6539 30 15.6407 16.0225 16.4492 16.933 17.4915 18.1521 18.9606 20.0029 21.472 23.9834 30 15.9915 16.3732 16.8 17.2838 17.8423 18.5029 19.3114 20.3537 21.8228 24.3342 30 16.3664 16.7482 17.1749 17.6587 18.2173 18.8778 19.6863 20.7287 22.1977 24.7091 30 16.7692 17.1509 17.5777 18.0615 18.62 19.2806 20.0891 21.1314 22.6005 25.1119 30 17.2042 17.586 18.0127 18.4965 19.055 19.7156 20.5241 21.5664 23.0355 25.5469 30 17.6771 18.0588 18.4856 18.9694 19.5279 20.1885 20.997 22.0393 23.5084 26.0198 30 18.1951 18.5768 19.0036 19.4874 20.0459 20.7065 21.515 22.5573 24.0264 26.5378 30 18.7677 19.1494 19.5762 20.06 20.6185 21.2791 22.0876 23.1299 24.599 27.1104 30 19.4078 19.7896 20.2163 20.7001 21.2586 21.9192 22.7277 23.77 25.2391 27.7505 30 20.1335 20.5153 20.942 21.4258 21.9844 22.6449 23.4534 24.4958 25.9648 28.4762 30 20.9713 21.3531 21.7798 22.2636 22.8221 23.4827 24.2912 25.3335 26.8026 29.314 30 21.9622 22.3439 22.7707 23.2545 23.813 24.4736 25.2821 26.3244 27.7935 30 23.1749 23.5567 23.9834 24.4672 25.0258 25.6863 26.4948 27.5372 29.0062 30 24.7384 25.1202 25.5469 26.0307 26.5892 27.2498 28.0583 29.1006 30 26.942 27.3238 27.7505 28.2343 28.7929 29.4534 30 11.4318 11.8135 12.2403 12.7241 13.2826 13.9432 14.7517 15.794 17.2631 19.7745 30 11.5823 11.9641 12.3908 12.8746 13.4332 14.0937 14.9022 15.9446 17.4136 19.925 30 11.9056 12.0525 12.2035 12.3588 12.5187 12.6834 12.8532 13.0285 13.2097 13.3971 13.5913 13.7926 14.0016 14.2191 14.4455 14.6819 14.9289 15.1878 15.4596 15.7457 16.0477 16.3675 16.7073 17.0697 17.4581 17.8764 19.0891 20.6526 22.8562 26.6233 30 14.1093 14.491 14.9177 15.4016 15.9601 16.6207 17.4291 18.4715 19.9406 22.452 30 14.3311 14.7129 15.1396 15.6234 16.1819 16.8425 17.651 18.6933 20.1624 22.6738 30 14.5624 14.9442 15.3709 15.8547 16.4132 17.0738 17.8823 18.9246 20.3937 22.9051 30 14.804 15.1857 15.6125 16.0963 16.6548 17.3154 18.1239 19.1662 20.6353 23.1467 30 15.0568 15.4386 15.8653 16.3491 16.9076 17.5682 18.3767 19.419 20.8881 23.3995 30 15.322 15.7037 16.1305 16.6143 17.1728 17.8334 18.6419 19.6842 21.1533 23.6647 30 15.6008 15.9825 16.4092 16.8931 17.4516 18.1122 18.9207 19.963 21.4321 23.9435 30 15.8946 16.2763 16.7031 17.1869 17.7454 18.406 19.2145 20.2568 21.7259 24.2373 30 16.2052 16.587 17.0137 17.4975 18.0561 18.7166 19.5251 20.5675 22.0365 24.5479 30 16.5347 16.9165 17.3432 17.827 18.3855 19.0461 19.8546 20.8969 22.366 24.8774 30 16.8855 17.2672 17.694 18.1778 18.7363 19.3969 20.2054 21.2477 22.7168 25.2282 30 17.2604 17.6422 18.0689 18.5527 19.1113 19.7718 20.5803 21.6227 23.0917 25.6031 30 17.6632 18.0449 18.4717 18.9555 19.514 20.1746 20.9831 22.0254 23.4945 26.0059 30 18.0982 18.48 18.9067 19.3905 19.949 20.6096 21.4181 22.4604 23.9295 26.4409 30 18.5711 18.9528 19.3796 19.8634 20.4219 21.0825 21.891 22.9333 24.4024 26.9138 30 19.0891 19.4708 19.8976 20.3814 20.9399 21.6005 22.409 23.4513 24.9204 27.4318 30 19.6617 20.0434 20.4702 20.954 21.5125 22.1731 22.9816 24.0239 25.493 28.0044 30 20.3018 20.6836 21.1103 21.5941 22.1526 22.8132 23.6217 24.6641 26.1331 28.6445 30 21.0275 21.4093 21.836 22.3198 22.8784 23.5389 24.3474 25.3898 26.8588 29.3702 30 21.8653 22.2471 22.6738 23.1576 23.7161 24.3767 25.1852 26.2275 27.6966 30 22.8562 23.2379 23.6647 24.1485 24.707 25.3676 26.1761 27.2184 28.6875 30 24.0689 24.4507 24.8774 25.3612 25.9198 26.5803 27.3888 28.4312 29.9002 30 25.6324 26.0142 26.4409 26.9247 27.4832 28.1438 28.9523 29.9946 30 27.836 28.2178 28.6445 29.1283 29.6869 30 11.9883 12.1351 12.2859 12.4409 12.6004 12.7645 12.9336 13.108 13.288 13.474 13.6664 13.8657 14.0724 14.287 14.5102 14.7427 14.9854 15.239 15.5048 15.7838 16.0776 16.3876 16.716 17.0648 17.4369 17.8356 18.2651 19.5101 21.1153 23.3777 27.2453 30 14.1787 14.5604 14.9871 15.471 16.0295 16.6901 17.4986 18.5409 20.01 22.5214 30 14.3975 14.7792 15.206 15.6898 16.2483 16.9089 17.7174 18.7597 20.2288 22.7402 30 14.6253 15.007 15.4338 15.9176 16.4761 17.1367 17.9452 18.9875 20.4566 22.968 30 14.8627 15.2445 15.6712 16.155 16.7136 17.3741 18.1826 19.225 20.694 23.2054 30 15.1108 15.4925 15.9193 16.4031 16.9616 17.6222 18.4307 19.473 20.9421 23.4535 30 15.3703 15.7521 16.1788 16.6626 17.2212 17.8817 18.6902 19.7326 21.2016 23.713 30 15.6426 16.0243 16.4511 16.9349 17.4934 18.154 18.9625 20.0048 21.4739 23.9853 30 15.9288 16.3105 16.7373 17.2211 17.7796 18.4402 19.2487 20.291 21.7601 24.2715 30 16.2305 16.6122 17.0389 17.5228 18.0813 18.7419 19.5503 20.5927 22.0618 24.5732 30 16.5494 16.9311 17.3579 17.8417 18.4002 19.0608 19.8693 20.9116 22.3807 24.8921 30 16.8877 17.2694 17.6961 18.18 18.7385 19.3991 20.2075 21.2499 22.7189 25.2303 30 17.2478 17.6295 18.0562 18.5401 19.0986 19.7592 20.5677 21.61 23.0791 25.5905 30 17.6327 18.0145 18.4412 18.925 19.4835 20.1441 20.9526 21.9949 23.464 25.9754 30 18.0462 18.428 18.8547 19.3385 19.897 20.5576 21.3661 22.4084 23.8775 26.3889 30 18.4928 18.8746 19.3013 19.7851 20.3437 21 21.8074 22.848 24.3135 26.8144 30 18.9783 19.3601 19.7868 20.2706 20.8291 21.4897 22.2982 23.3406 24.8096 27.321 30 19.5101 19.8919 20.3186 20.8024 21.361 22.0215 22.83 23.8724 25.3414 27.8528 30 20.098 20.4798 20.9065 21.3903 21.9488 22.6094 23.4179 24.4602 25.9293 28.4407 30 20.7552 21.137 21.5637 22.0475 22.606 23.2666 24.0751 25.1174 26.5865 29.0979 30 21.5003 21.882 22.3088 22.7926 23.3511 24.0117 24.8202 25.8625 27.3316 29.843 30 22.3604 22.7421 23.1689 23.6527 24.2112 24.8718 25.6803 26.7226 28.1917 30 23.3777 23.7594 24.1862 24.67 25.2285 25.8891 26.6976 27.7399 29.209 30 24.6228 25.0045 25.4313 25.9151 26.4736 27.1342 27.9427 28.985 30 26.228 26.6097 27.0364 27.5203 28.0788 28.7394 29.5478 30 28.4903 28.8721 29.2988 29.7826 30 12.2953 12.677 13.1038 13.5876 14.1461 14.8067 15.6152 16.6575 18.1266 20.638 30 12.4263 12.808 13.2347 13.7186 14.2771 14.9377 15.7461 16.7885 18.2575 20.769 30 12.6432 12.7901 12.9409 13.0959 13.2553 13.4194 13.5885 13.7629 13.9429 14.1289 14.3214 14.5206 14.7273 14.942 15.1652 15.3977 15.6403 15.894 16.1597 16.4388 16.7325 17.0426 17.3709 17.7198 18.0919 18.4906 18.92 20.1651 21.7703 24.0326 27.9002 30 14.8336 15.2154 15.6421 16.1259 16.6844 17.345 18.1535 19.1958 20.6649 23.1763 30 15.0525 15.4342 15.8609 16.3448 16.9033 17.5639 18.3723 19.4147 20.8837 23.3951 30 15.2802 15.662 16.0887 16.5725 17.131 17.7916 18.6001 19.6424 21.1115 23.6229 30 15.5177 15.8994 16.3262 16.81 17.3685 18.0291 18.8376 19.8799 21.349 23.8604 30 15.7657 16.1475 16.5742 17.058 17.6165 18.2771 19.0856 20.1279 21.597 24.1084 30 16.0253 16.407 16.8338 17.3176 17.8761 18.5367 19.3452 20.3875 21.8566 24.368 30 16.2975 16.6793 17.106 17.5898 18.1483 18.8089 19.6174 20.6597 22.1288 24.6402 30 16.5837 16.9655 17.3922 17.876 18.4345 19.0951 19.9036 20.9459 22.415 24.9264 30 16.8854 17.2671 17.6939 18.1777 18.7362 19.3968 20.2053 21.2476 22.7167 25.2281 30 17.2043 17.5861 18.0128 18.4966 19.0552 19.7157 20.5242 21.5666 23.0356 25.547 30 17.5426 17.9243 18.3511 18.8349 19.3934 20.054 20.8625 21.9048 23.3739 25.8853 30 17.9027 18.2845 18.7112 19.195 19.7535 20.4141 21.2226 22.2649 23.734 26.2454 30 18.2877 18.6694 19.0962 19.58 20.1385 20.7991 21.6076 22.6499 24.119 26.6304 30 18.7012 19.0829 19.5097 19.9935 20.552 21.2126 22.0211 23.0634 24.5325 27.0439 30 19.1478 19.5295 19.9563 20.4401 20.9986 21.6592 22.4677 23.51 24.9791 27.4905 30 19.6333 20.015 20.4418 20.9256 21.4841 22.1447 22.9532 23.9955 25.4646 27.976 30 20.1651 20.5468 20.9736 21.4574 22.0159 22.6765 23.485 24.5273 25.9964 28.5078 30 20.753 21.1347 21.5615 22.0453 22.6038 23.2644 24.0729 25.1152 26.5843 29.0957 30 21.4102 21.7919 22.2187 22.7025 23.261 23.9216 24.7301 25.7724 27.2415 29.7529 30 22.1552 22.537 22.9637 23.4475 24.006 24.6666 25.4751 26.5175 27.9865 30 23.0153 23.3971 23.8238 24.3076 24.8662 25.5267 26.3352 27.3776 28.8466 30 24.0326 24.4144 24.8411 25.3249 25.8835 26.5441 27.3525 28.3949 29.8639 30 25.2777 25.6595 26.0862 26.57 27.1285 27.7891 28.5976 29.6399 30 26.8829 27.2646 27.6914 28.1752 28.7337 29.3943 30 29.1453 29.527 29.9538 30 12.8875 13.2692 13.6959 14.1798 14.7383 15.3989 16.2073 17.2497 18.7188 21.2302 30 13.0951 13.4768 13.9036 14.3874 14.9459 15.6065 16.415 17.4573 18.9264 21.4378 30 13.4103 13.5573 13.7086 13.8646 14.0253 14.1913 14.3628 14.5403 14.724 14.9146 15.1125 15.3183 15.5327 15.7565 15.9904 16.2354 16.4927 16.7636 17.0495 17.3522 17.6739 18.017 18.3846 18.7806 19.9287 21.4088 23.4948 27.061 30 15.6434 16.0251 16.4519 16.9357 17.4942 18.1548 18.9633 20.0056 21.4747 23.9861 30 15.8721 16.2538 16.6806 17.1644 17.7229 18.3835 19.192 20.2343 21.7034 24.2148 30 16.1114 16.4932 16.9199 17.4037 17.9623 18.6228 19.4313 20.4737 21.9427 24.4541 30 16.3625 16.7442 17.1709 17.6548 18.2133 18.8739 19.6824 20.7247 22.1938 24.7052 30 16.6264 17.0081 17.4348 17.9187 18.4772 19.1378 19.9463 20.9886 22.4577 24.9691 30 16.9045 17.2863 17.713 18.1968 18.7553 19.4159 20.2244 21.2668 22.7358 25.2472 30 17.1986 17.5803 18.0071 18.4909 19.0494 19.71 20.5185 21.5608 23.0299 25.5413 30 17.5105 17.8923 18.319 18.8028 19.3613 20.0219 20.8304 21.8727 23.3418 25.8532 30 17.8426 18.2243 18.6511 19.1349 19.6934 20.354 21.1625 22.2048 23.6739 26.1853 30 18.1975 18.5793 19.006 19.4898 20.0483 20.7089 21.5174 22.5597 24.0288 26.5402 30 18.5788 18.9605 19.3873 19.8711 20.4296 21.0902 21.8987 22.941 24.4101 26.9215 30 18.9906 19.3724 19.7991 20.2829 20.8414 21.502 22.3105 23.3528 24.8219 27.3333 30 19.4383 19.82 20.2468 20.7306 21.2891 21.9497 22.7582 23.8005 25.2696 27.781 30 19.9287 20.3104 20.7371 21.221 21.7795 22.4401 23.2485 24.2909 25.7599 28.2713 30 20.4707 20.8525 21.2792 21.763 22.3215 22.9821 23.7906 24.8329 26.302 28.8134 30 21.0767 21.4584 21.8852 22.369 22.9275 23.5881 24.3966 25.4389 26.908 29.4194 30 21.7637 22.1455 22.5722 23.056 23.6145 24.2751 25.0836 26.1259 27.595 30 22.5568 22.9386 23.3653 23.8491 24.4076 25.0682 25.8767 26.919 28.3881 30 23.4948 23.8766 24.3033 24.7871 25.3457 26.0062 26.8147 27.8571 29.3261 30 24.6429 25.0246 25.4514 25.9352 26.4937 27.1543 27.9628 29.0051 30 26.123 26.5047 26.9315 27.4153 27.9738 28.6344 29.4429 30 28.2091 28.5908 29.0176 29.5014 30 13.6104 13.9922 14.4189 14.9027 15.4612 16.1218 16.9303 17.9726 19.4417 21.9531 30 13.7496 13.8966 14.0477 14.2033 14.3636 14.529 14.6996 14.876 15.0584 15.2473 15.4433 15.6468 15.8584 16.0788 16.3088 16.5493 16.8013 17.0658 17.3443 17.6383 17.9495 18.2802 18.633 19.011 19.4182 20.5986 22.1203 24.2652 27.9318 30 15.9674 16.3492 16.7759 17.2597 17.8183 18.4789 19.2873 20.3297 21.7987 24.3101 30 16.1926 16.5743 17.0011 17.4849 18.0434 18.704 19.5125 20.5548 22.0239 24.5353 30 16.4277 16.8095 17.2362 17.72 18.2785 18.9391 19.7476 20.7899 22.259 24.7704 30 16.6738 17.0556 17.4823 17.9661 18.5246 19.1852 19.9937 21.036 22.5051 25.0165 30 16.9319 17.3136 17.7404 18.2242 18.7827 19.4433 20.2518 21.2941 22.7632 25.2746 30 17.2032 17.585 18.0117 18.4955 19.0541 19.7146 20.5231 21.5655 23.0345 25.5459 30 17.4892 17.871 18.2977 18.7815 19.3401 20.0006 20.8091 21.8515 23.3205 25.8319 30 17.7916 18.1733 18.6001 19.0839 19.6424 20.303 21.1115 22.1538 23.6229 26.1343 30 18.1123 18.494 18.9208 19.404