<?xml version="1.0"?><VTKFile type="PolyData" version="0.1" byte_order="LittleEndian">
<PolyData>
<Piece NumberOfLines="244" NumberOfPoints="1842">
<PointData Scalars=" PointData">
<DataArray type="Float32" Name="time" NumberOfComponents="1" format="ascii" >
0 0.364105 0.386762 0.50787 0.527747 0.726473 0.916515 1.10118 1.22862 1.34714 1.43295 1.55307 1.79931 1.81229 1.84301 2.04849 2.27344 2.55085 2.73776 2.79479 2.98827 3.24874 3.50528 3.68333 3.86578 3.9732 4.11891 4.32083 4.55453 4.65242 4.90742 5.02433 5.27329 5.43761 5.70913 5.98805 6.17239 6.24493 6.42293 6.67747 6.79859 6.93302 7.10676 7.35753 7.53579 7.6418 7.77071 7.90617 8.11498 8.31872 8.44339 8.52144 8.57542 8.84029 9.05099 9.35482 9.56195 9.77562 10.0795 10.2069 10.4153 10.6316 10.8862 11.0465 11.3675 11.5825 11.7109 11.847 12.0338 12.0979 12.1683 12.3713 12.4672 12.5771 12.7822 13 4.21706 4.3639 4.51471 4.66971 4.82914 4.99327 5.16236 5.33674 5.51675 5.70275 5.89518 6.09447 6.30115 6.51578 6.739 6.97152 7.21416 7.46783 7.73358 8.01262 8.30636 8.61642 8.94473 9.29358 9.6657 10.0644 10.4938 11.7389 13 6.40744 6.78918 7.21593 7.69974 8.25825 8.91884 9.72733 10.7697 12.2387 13 6.62628 7.00802 7.43477 7.91858 8.4771 9.13768 9.94617 10.9885 12.4576 13 6.85405 7.23579 7.66254 8.14635 8.70487 9.36546 10.1739 11.2163 12.6853 13 7.09152 7.47326 7.90001 8.38382 8.94234 9.60293 10.4114 11.4537 12.9228 13 7.33955 7.72129 8.14804 8.63185 9.19037 9.85095 10.6594 11.7018 13 7.59912 7.98086 8.40761 8.89142 9.44994 10.1105 10.919 11.9613 13 7.87135 8.25309 8.67985 9.16365 9.72217 10.3828 11.1912 12.2336 13 8.15756 8.5393 8.96605 9.44986 10.0084 10.669 11.4774 12.5198 13 8.45924 8.84098 9.26773 9.75154 10.3101 10.9706 11.7791 12.8215 13 8.77816 9.1599 9.58665 10.0705 10.629 11.2896 12.0981 13 9.11643 9.49817 9.92492 10.4087 10.9672 11.6278 12.4363 13 9.47654 9.85828 10.285 10.7688 11.3274 11.9879 12.7964 13 9.8615 10.2432 10.67 11.1538 11.7123 12.3729 13 10.275 10.6567 11.0835 11.5673 12.1258 12.7864 13 10.7216 11.1034 11.5301 12.0139 12.5724 13 11.2071 11.5889 12.0156 12.4994 13 11.7389 12.1207 12.5474 13 12.3268 12.7085 13 12.984 13 4.2422 4.62394 5.05069 5.5345 6.09302 6.7536 7.5621 8.60442 10.0735 12.5849 13 4.37664 4.75838 5.18513 5.66894 6.22746 6.88804 7.69654 8.73886 10.2079 12.7193 13 4.39871 4.78045 5.2072 5.69101 6.24953 6.91011 7.71861 8.76093 10.23 12.7414 13 4.61943 5.00117 5.42792 5.91173 6.47025 7.13083 7.93933 8.98165 10.4507 12.9621 13 4.83063 4.97783 5.12979 5.28681 5.44924 5.61748 5.79195 5.97313 6.16156 6.35784 6.56267 6.7768 7.00114 7.23669 7.48465 7.74639 8.02354 8.31802 8.63215 8.96873 9.33123 10.3823 11.7373 13 7.11744 7.49918 7.92593 8.40974 8.96826 9.62884 10.4373 11.4797 12.9487 13 7.35904 7.74078 8.16753 8.65134 9.20986 9.87044 10.6789 11.7213 13 7.6137 7.99545 8.4222 8.906 9.46452 10.1251 10.9336 11.9759 13 7.88293 8.26467 8.69142 9.17523 9.73375 10.3943 11.2028 12.2451 13 8.16848 8.55022 8.97697 9.46078 10.0193 10.6799 11.4884 12.5307 13 8.47247 8.85421 9.28096 9.76477 10.3233 10.9839 11.7924 12.8347 13 8.79743 9.17917 9.60592 10.0897 10.6482 11.3088 12.1173 13 9.14649 9.52823 9.95498 10.4388 10.9973 11.6579 12.4664 13 9.5235 9.90524 10.332 10.8158 11.3743 12.0349 12.8434 13 9.93334 10.3151 10.7418 11.2256 11.7842 12.4447 13 10.3823 10.764 11.1908 11.6746 12.2331 12.8937 13 10.8785 11.2603 11.687 12.1708 12.7293 13 11.4333 11.815 12.2418 12.7256 13 12.0623 12.444 12.8707 13 12.7883 13 5.03597 5.41771 5.84446 6.32827 6.88679 7.54738 8.35587 9.39819 10.8673 13 5.17774 5.32469 5.47584 5.63143 5.79174 5.95707 6.12772 6.30407 6.48649 6.67544 6.87138 7.07486 7.28648 7.50693 7.73696 7.97744 8.22939 8.49394 8.77242 9.06637 9.37763 9.70835 10.0611 10.4391 10.8463 12.0267 13 7.39556 7.7773 8.20405 8.68786 9.24637 9.90696 10.7154 11.7578 13 7.62069 8.00243 8.42918 8.91299 9.47151 10.1321 10.9406 11.9829 13 7.85583 8.23757 8.66432 9.14813 9.70665 10.3672 11.1757 12.2181 13 8.10192 8.48366 8.91041 9.39422 9.95274 10.6133 11.4218 12.4641 13 8.36001 8.74175 9.1685 9.65231 10.2108 10.8714 11.6799 12.7222 13 8.63134 9.01309 9.43984 9.92365 10.4822 11.1427 11.9512 12.9936 13 8.91735 9.29909 9.72584 10.2097 10.7682 11.4288 12.2372 13 9.21971 9.60145 10.0282 10.512 11.0705 11.7311 12.5396 13 9.54041 9.92215 10.3489 10.8327 11.3912 12.0518 12.8603 13 9.88181 10.2635 10.6903 11.1741 11.7326 12.3932 13 10.2468 10.6285 11.0553 11.5391 12.0976 12.7582 13 10.6388 11.0205 11.4473 11.9311 12.4896 13 11.0622 11.4439 11.8707 12.3545 12.913 13 11.5225 11.9042 12.331 12.8148 13 12.0267 12.4084 12.8351 13 12.584 12.9657 13 5.30965 5.69139 6.11814 6.60195 7.16047 7.82105 8.62954 9.67187 11.1409 13 5.40517 5.55244 5.70463 5.86207 6.02513 6.19423 6.36984 6.55247 6.74272 6.94123 7.14878 7.36621 7.59452 7.83485 8.08854 8.35716 8.64258 8.94704 9.27327 9.62461 10.6433 11.9566 13 7.71311 8.09485 8.5216 9.00541 9.56392 10.2245 11.033 12.0753 13 7.95993 8.34167 8.76842 9.25223 9.81075 10.4713 11.2798 12.3222 13 8.22087 8.60262 9.02937 9.51317 10.0717 10.7323 11.5408 12.5831 13 8.49764 8.87938 9.30613 9.78994 10.3485 11.009 11.8175 12.8599 13 8.79227 9.17401 9.60076 10.0846 10.6431 11.3037 12.1122 13 9.10724 9.48898 9.91573 10.3995 10.9581 11.6186 12.4271 13 9.44556 9.8273 10.254 10.7379 11.2964 11.957 12.7655 13 9.81097 10.1927 10.6195 11.1033 11.6618 12.3224 13 10.2082 10.5899 11.0167 11.5005 12.059 12.7196 13 10.6433 11.025 11.4518 11.9356 12.4941 13 11.1243 11.506 11.9328 12.4166 12.9751 13 11.662 12.0437 12.4705 12.9543 13 12.2716 12.6533 13 12.9753 13 5.53893 5.92067 6.34742 6.83123 7.38975 8.05034 8.85883 9.90115 11.3702 13 5.8133 6.19504 6.62179 7.1056 7.66412 8.3247 9.1332 10.1755 11.6446 13 5.82777 6.20951 6.63626 7.12007 7.67859 8.33918 9.14767 10.19 11.6591 13 5.86202 6.00886 6.15967 6.31467 6.4741 6.63823 6.80732 6.9817 7.16171 7.34771 7.54014 7.73943 7.94611 8.16074 8.38396 8.61648 8.85912 9.11279 9.37854 9.65758 9.95132 10.2614 10.5897 10.9385 11.3107 11.7094 12.1388 13 8.0524 8.43414 8.86089 9.3447 9.90321 10.5638 11.3723 12.4146 13 8.27124 8.65298 9.07973 9.56354 10.1221 10.7826 11.5911 12.6335 13 8.49901 8.88075 9.3075 9.79131 10.3498 11.0104 11.8189 12.8612 13 8.73648 9.11822 9.54497 10.0288 10.5873 11.2479 12.0564 13 8.98451 9.36625 9.793 10.2768 10.8353 11.4959 12.3044 13 9.24408 9.62582 10.0526 10.5364 11.0949 11.7555 12.564 13 9.51631 9.89805 10.3248 10.8086 11.3671 12.0277 12.8362 13 9.80252 10.1843 10.611 11.0948 11.6533 12.3139 13 10.1042 10.4859 10.9127 11.3965 11.955 12.6156 13 10.4231 10.8049 11.2316 11.7154 12.2739 12.9345 13 10.7614 11.1431 11.5699 12.0537 12.6122 13 11.1215 11.5032 11.93 12.4138 12.9723 13 11.5065 11.8882 12.3149 12.7988 13 11.92 12.3017 12.7284 13 12.3666 12.7483 13 12.8521 13 6.09116 6.4729 6.89965 7.38346 7.94198 8.60256 9.41105 10.4534 11.9225 13 6.34218 6.72392 7.15067 7.63448 8.193 8.85359 9.66208 10.7044 12.1735 13 6.65199 6.79874 6.94925 7.10372 7.26237 7.42542 7.59313 7.76578 7.94366 8.1271 8.31645 8.51213 8.71454 8.92419 9.14161 9.36739 9.6022 9.8468 10.102 10.3689 10.6484 10.942 11.251 11.5771 11.9225 12.2895 12.6809 13 8.81843 9.20017 9.62692 10.1107 10.6693 11.3298 12.1383 13 9.0319 9.41364 9.84039 10.3242 10.8827 11.5433 12.3518 13 9.25341 9.63516 10.0619 10.5457 11.1042 11.7648 12.5733 13 9.48362 9.86536 10.2921 10.7759 11.3344 11.995 12.8035 13 9.72323 10.105 10.5317 11.0155 11.574 12.2346 13 9.97304 10.3548 10.7815 11.2653 11.8239 12.4844 13 10.2339 10.6157 11.0424 11.5262 12.0848 12.7454 13 10.507 10.8887 11.3155 11.7993 12.3578 13 10.7934 11.1751 11.6019 12.0857 12.6442 13 11.0944 11.4762 11.9029 12.3867 12.9453 13 11.4118 11.7935 12.2203 12.7041 13 11.7473 12.129 12.5558 13 12.1031 12.4849 12.9116 13 12.4819 12.8637 13 12.8869 13 6.86088 7.24262 7.66937 8.15318 8.7117 9.37228 10.1808 11.2231 12.6922 13 6.92464 7.07159 7.22274 7.37834 7.53865 7.70397 7.87462 8.05097 8.23339 8.42234 8.61828 8.82176 9.03338 9.25383 9.48386 9.72435 9.97629 10.2408 10.5193 10.8133 11.1245 11.4553 11.808 12.1861 12.5932 13 9.14246 9.5242 9.95095 10.4348 10.9933 11.6539 12.4624 13 9.36759 9.74933 10.1761 10.6599 11.2184 11.879 12.6875 13 9.60274 9.98448 10.4112 10.895 11.4536 12.1141 12.9226 13 9.84882 10.2306 10.6573 11.1411 11.6996 12.3602 13 10.1069 10.4887 10.9154 11.3992 11.9577 12.6183 13 10.3782 10.76 11.1867 11.6705 12.2291 12.8896 13 10.6643 11.046 11.4727 11.9566 12.5151 13 10.9666 11.3484 11.7751 12.2589 12.8174 13 11.2873 11.6691 12.0958 12.5796 13 11.6287 12.0104 12.4372 12.921 13 11.9937 12.3754 12.8022 13 12.3857 12.7674 13 12.8091 13 7.14105 7.28784 7.4385 7.59323 7.75225 7.91583 8.08421 8.2577 8.43661 8.62129 8.81213 9.00955 9.21402 9.42607 9.64627 9.87529 10.1139 10.3628 10.623 10.8957 11.182 11.4834 11.8015 12.1383 12.4962 12.878 13 9.31906 9.7008 10.1276 10.6114 11.1699 11.8305 12.639 13 9.53511 9.91685 10.3436 10.8274 11.3859 12.0465 12.855 13 9.75964 10.1414 10.5681 11.0519 11.6105 12.271 13 9.99333 10.3751 10.8018 11.2856 11.8441 12.5047 13 10.237 10.6187 11.0455 11.5293 12.0878 12.7484 13 10.4914 10.8732 11.2999 11.7837 12.3423 13 10.7577 11.1395 11.5662 12.05 12.6086 13 11.0371 11.4188 11.8455 12.3294 12.8879 13 11.3307 11.7124 12.1392 12.623 13 11.6402 12.0219 12.4487 12.9325 13 11.9674 12.3492 12.7759 13 12.3145 12.6962 13 12.6839 13 7.4326 7.57944 7.73025 7.88525 8.04468 8.20881 8.3779 8.55228 8.73229 8.91829 9.11072 9.31001 9.51669 9.73132 9.95454 10.1871 10.4297 10.6834 10.9491 11.2282 11.5219 11.832 12.1603 12.5091 12.8812 13 9.62298 10.0047 10.4315 10.9153 11.4738 12.1344 12.9429 13 9.84182 10.2236 10.6503 11.1341 11.6926 12.3532 13 10.0696 10.4513 10.8781 11.3619 11.9204 12.581 13 10.3071 10.6888 11.1156 11.5994 12.1579 12.8185 13 10.5551 10.9368 11.3636 11.8474 12.4059 13 10.8147 11.1964 11.6231 12.107 12.6655 13 11.0869 11.4686 11.8954 12.3792 12.9377 13 11.3731 11.7548 12.1816 12.6654 13 11.6748 12.0565 12.4833 12.9671 13 11.9937 12.3754 12.8022 13 12.332 12.7137 13 12.6921 13 7.71998 8.10172 8.52847 9.01228 9.5708 10.2314 11.0399 12.0822 13 7.91958 8.30132 8.72807 9.21188 9.7704 10.431 11.2395 12.2818 13 8.12424 8.27099 8.4215 8.57597 8.73462 8.89767 9.06538 9.23803 9.41591 9.59935 9.78871 9.98438 10.1868 10.3964 10.6139 10.8396 11.0745 11.3191 11.5743 11.8411 12.1207 12.4142 12.7232 13 10.2907 10.6724 11.0992 11.583 12.1415 12.8021 13 10.5041 10.8859 11.3126 11.7964 12.355 13 10.7257 11.1074 11.5342 12.018 12.5765 13 10.9559 11.3376 11.7644 12.2482 12.8067 13 11.1955 11.5772 12.004 12.4878 13 11.4453 11.827 12.2538 12.7376 13 11.7062 12.0879 12.5147 12.9985 13 11.9793 12.361 12.7877 13 12.2656 12.6474 13 12.5667 12.9484 13 12.8841 13 8.24478 8.62652 9.05327 9.53708 10.0956 10.7562 11.5647 12.607 13 8.40837 8.55522 8.70603 8.86103 9.02046 9.18458 9.35368 9.52806 9.70806 9.89407 10.0865 10.2858 10.4925 10.7071 10.9303 11.1628 11.4055 11.6591 11.9249 12.2039 12.4977 12.8077 13 10.5988 10.9805 11.4072 11.8911 12.4496 13 10.8176 11.1993 11.6261 12.1099 12.6684 13 11.0454 11.4271 11.8539 12.3377 12.8962 13 11.2828 11.6646 12.0913 12.5751 13 11.5309 11.9126 12.3394 12.8232 13 11.7904 12.1722 12.5989 13 12.0627 12.4444 12.8712 13 12.3489 12.7306 13 12.6506 13 12.9695 13 8.6352 8.78215 8.9333 9.0889 9.24921 9.41453 9.58518 9.76153 9.94396 10.1329 10.3288 10.5323 10.7439 10.9644 11.1944 11.4349 11.6869 11.9514 12.2299 12.5238 12.8351 13 10.853 11.2348 11.6615 12.1453 12.7038 13 11.0782 11.4599 11.8866 12.3705 12.929 13 11.3133 11.695 12.1218 12.6056 13 11.5594 11.9411 12.3679 12.8517 13 11.8175 12.1992 12.626 13 12.0888 12.4705 12.8973 13 12.3748 12.7566 13 12.6772 13 12.9979 13 8.89793 9.04488 9.19603 9.35162 9.51193 9.67726 9.84791 10.0243 10.2067 10.3956 10.5916 10.7951 11.0067 11.2271 11.4571 11.6976 11.9496 12.2141 12.4926 12.7866 13 11.1157 11.4975 11.9242 12.408 12.9666 13 11.3409 11.7226 12.1494 12.6332 13 11.576 11.9578 12.3845 12.8683 13 11.8221 12.2038 12.6306 13 12.0802 12.4619 12.8887 13 12.3515 12.7333 13 12.6375 13 12.9399 13 8.89793 9.04488 9.19603 9.35162 9.51194 9.67726 9.84791 10.0243 10.2067 10.3956 10.5916 10.7951 11.0067 11.2271 11.4571 11.6976 11.9496 12.2141 12.4926 12.7866 13 11.1157 11.4975 11.9242 12.408 12.9666 13 11.3409 11.7226 12.1494 12.6332 13 11.576 11.9578 12.3845 12.8683 13 11.8221 12.2038 12.6306 13 12.0802 12.4619 12.8887 13 12.3515 12.7333 13 12.6375 13 12.9399 13 9.00803 9.38977 9.81652 10.3003 10.8588 11.5194 12.3279 13 9.00803 9.38977 9.81652 10.3003 10.8588 11.5194 12.3279 13 9.29503 9.67677 10.1035 10.5873 11.1458 11.8064 12.6149 13 9.42669 9.57354 9.72435 9.87935 10.0388 10.2029 10.372 10.5464 10.7264 10.9124 11.1048 11.3041 11.5108 11.7254 11.9486 12.1812 12.4238 12.6775 12.9432 13 11.6171 11.9988 12.4256 12.9094 13 11.8359 12.2177 12.6444 13 12.0637 12.4454 12.8722 13 12.3012 12.6829 13 12.5492 12.9309 13 12.8088 13 9.70725 10.089 10.5157 10.9996 11.5581 12.2187 13 9.89255 10.0393 10.19 10.3447 10.5038 10.6673 10.8357 11.0092 11.1881 11.3728 11.5636 11.7611 11.9655 12.1776 12.3978 12.6268 12.8654 13 12.0706 12.4523 12.8791 13 12.2866 12.6684 13 12.5111 12.8929 13 12.7448 13 12.9885 13 10.199 10.3458 10.4966 10.6516 10.8111 10.9752 11.1443 11.3187 11.4987 11.6847 11.8771 12.0764 12.2831 12.4977 12.7209 12.9534 13 12.3893 12.7711 13 12.6082 12.9899 13 12.836 13 10.5141 10.8958 11.3225 11.8064 12.3649 13 10.7225 11.1042 11.5309 12.0148 12.5733 13 10.8045 11.1863 11.613 12.0968 12.6553 13 11.0059 11.1529 11.3043 11.4602 11.621 11.787 11.9585 12.1359 12.3197 12.5102 12.7081 12.914 13 11.2942 11.6759 12.1027 12.5865 13 11.4314 11.8132 12.2399 12.7237 13 11.5838 11.9656 12.3923 12.8761 13 11.7809 12.1627 12.5894 13 12.0656 12.4474 12.8741 13 12.2681 12.6499 13 12.3886 12.7704 13 12.5352 12.917 13 12.6894 13 12.9271 13 
</DataArray>

</PointData>
<CellData Scalars=" CellData">
<DataArray type="Float32" Name="radius" NumberOfComponents="1" format="ascii" >
0.023 0.023 0.008 0.008 0.008 0.008 0.008 0.008 0.008 0.008 0.008 0.008 0.008 0.008 0.008 0.008 0.008 0.008 0.008 0.008 0.008 0.008 0.008 0.008 0.008 0.023 0.008 0.008 0.008 0.008 0.008 0.008 0.008 0.008 0.008 0.008 0.008 0.008 0.008 0.008 0.008 0.008 0.023 0.008 0.008 0.008 0.008 0.008 0.008 0.008 0.008 0.008 0.008 0.008 0.008 0.008 0.008 0.008 0.008 0.008 0.023 0.008 0.008 0.008 0.008 0.008 0.008 0.008 0.008 0.008 0.008 0.008 0.008 0.008 0.008 0.008 0.008 0.008 0.023 0.008 0.008 0.008 0.008 0.008 0.008 0.008 0.008 0.008 0.008 0.008 0.008 0.008 0.008 0.008 0.008 0.008 0.008 0.023 0.008 0.008 0.008 0.008 0.008 0.008 0.008 0.008 0.008 0.008 0.008 0.008 0.008 0.008 0.008 0.008 0.023 0.008 0.008 0.008 0.008 0.008 0.008 0.008 0.008 0.008 0.008 0.008 0.008 0.008 0.023 0.008 0.008 0.008 0.008 0.008 0.008 0.008 0.008 0.008 0.008 0.008 0.008 0.008 0.023 0.008 0.008 0.008 0.008 0.008 0.008 0.008 0.008 0.008 0.008 0.008 0.008 0.008 0.008 0.023 0.008 0.008 0.008 0.008 0.008 0.008 0.008 0.008 0.008 0.008 0.008 0.008 0.023 0.008 0.008 0.008 0.008 0.008 0.008 0.008 0.008 0.008 0.008 0.023 0.008 0.008 0.008 0.008 0.008 0.008 0.008 0.008 0.008 0.023 0.008 0.008 0.008 0.008 0.008 0.008 0.008 0.008 0.023 0.008 0.008 0.008 0.008 0.008 0.008 0.008 0.008 0.008 0.008 0.008 0.023 0.008 0.008 0.008 0.008 0.008 0.008 0.008 0.023 0.008 0.008 0.008 0.008 0.008 0.023 0.008 0.008 0.008 0.008 0.008 0.008 0.023 0.008 0.008 0.008 0.008 0.008 0.008 0.008 0.008 0.008 0.023 
</DataArray>
<DataArray type="Float32" Name="subType" NumberOfComponents="1" format="ascii" >
1 2 3 3 3 3 3 3 3 3 3 3 3 3 3 3 3 3 3 3 3 3 3 3 3 2 3 3 3 3 3 3 3 3 3 3 3 3 3 3 3 3 2 3 3 3 3 3 3 3 3 3 3 3 3 3 3 3 3 3 2 3 3 3 3 3 3 3 3 3 3 3 3 3 3 3 3 3 2 3 3 3 3 3 3 3 3 3 3 3 3 3 3 3 3 3 3 2 3 3 3 3 3 3 3 3 3 3 3 3 3 3 3 3 2 3 3 3 3 3 3 3 3 3 3 3 3 3 2 3 3 3 3 3 3 3 3 3 3 3 3 3 2 3 3 3 3 3 3 3 3 3 3 3 3 3 3 2 3 3 3 3 3 3 3 3 3 3 3 3 2 3 3 3 3 3 3 3 3 3 3 2 3 3 3 3 3 3 3 3 3 2 3 3 3 3 3 3 3 3 2 3 3 3 3 3 3 3 3 3 3 3 2 3 3 3 3 3 3 3 2 3 3 3 3 3 2 3 3 3 3 3 3 2 3 3 3 3 3 3 3 3 3 2 
</DataArray>
<DataArray type="Float32" Name="creationTime" NumberOfComponents="1" format="ascii" >
0 4.21706 6.40744 6.62628 6.85405 7.09152 7.33955 7.59912 7.87135 8.15756 8.45924 8.77816 9.11643 9.47654 9.8615 10.275 10.7216 11.2071 11.7389 12.3268 12.984 4.2422 4.37664 4.39871 4.61943 4.83063 7.11744 7.35904 7.6137 7.88293 8.16848 8.47247 8.79743 9.14649 9.5235 9.93334 10.3823 10.8785 11.4333 12.0623 12.7883 5.03597 5.17774 7.39556 7.62069 7.85583 8.10192 8.36001 8.63134 8.91735 9.21971 9.54041 9.88181 10.2468 10.6388 11.0622 11.5225 12.0267 12.584 5.30965 5.40517 7.71311 7.95993 8.22087 8.49764 8.79227 9.10724 9.44556 9.81097 10.2082 10.6433 11.1243 11.662 12.2716 12.9753 5.53893 5.8133 5.82777 5.86202 8.0524 8.27124 8.49901 8.73648 8.98451 9.24408 9.51631 9.80252 10.1042 10.4231 10.7614 11.1215 11.5065 11.92 12.3666 12.8521 6.09116 6.34218 6.65199 8.81843 9.0319 9.25341 9.48362 9.72323 9.97304 10.2339 10.507 10.7934 11.0944 11.4118 11.7473 12.1031 12.4819 12.8869 6.86088 6.92464 9.14246 9.36759 9.60274 9.84882 10.1069 10.3782 10.6643 10.9666 11.2873 11.6287 11.9937 12.3857 12.8091 7.14105 9.31906 9.53511 9.75964 9.99333 10.237 10.4914 10.7577 11.0371 11.3307 11.6402 11.9674 12.3145 12.6839 7.4326 9.62298 9.84182 10.0696 10.3071 10.5551 10.8147 11.0869 11.3731 11.6748 11.9937 12.332 12.6921 7.71998 7.91958 8.12424 10.2907 10.5041 10.7257 10.9559 11.1955 11.4453 11.7062 11.9793 12.2656 12.5667 12.8841 8.24478 8.40837 10.5988 10.8176 11.0454 11.2828 11.5309 11.7904 12.0627 12.3489 12.6506 12.9695 8.6352 10.853 11.0782 11.3133 11.5594 11.8175 12.0888 12.3748 12.6772 12.9979 8.89793 11.1157 11.3409 11.576 11.8221 12.0802 12.3515 12.6375 12.9399 8.89793 11.1157 11.3409 11.576 11.8221 12.0802 12.3515 12.6375 12.9399 9.00803 9.00803 9.29503 9.42669 11.6171 11.8359 12.0637 12.3012 12.5492 12.8088 9.70725 9.89255 12.0706 12.2866 12.5111 12.7448 12.9885 10.199 12.3893 12.6082 12.836 10.5141 10.7225 10.8045 11.0059 11.2942 11.4314 11.5838 11.7809 12.0656 12.2681 12.3886 12.5352 12.6894 12.9271 
</DataArray>

</CellData>
<Points>
<DataArray type="Float32" Name="Coordinates" NumberOfComponents="3" format="ascii" >