<?xml version="1.0"?><VTKFile type="PolyData" version="0.1" byte_order="LittleEndian">
<PolyData>
<Piece NumberOfLines="23" NumberOfPoints="157">
<PointData Scalars=" PointData">
<DataArray type="Float32" Name="time" NumberOfComponents="1" format="ascii" >
0 0.364104 0.613362 0.695872 0.876113 1.11896 1.15269 1.45696 1.49057 1.63787 1.78381 1.98077 2.09521 2.41808 2.42524 2.63386 2.85438 3.0806 3.28999 3.45264 3.61675 3.86321 3.95586 4.06623 4.15525 4.43216 4.60897 4.79767 5.02824 5.10127 5.5195 5.53379 5.63019 5.83039 5.96474 6.01531 6.24092 6.5157 6.85174 7 4.21691 4.36398 4.5155 4.67176 4.83307 4.99975 5.17218 5.35077 5.53598 5.72831 5.92834 6.1367 6.35413 6.58144 6.81958 7 6.46649 6.84823 7 6.69909 7 6.94304 7 4.49362 4.64041 4.79107 4.9458 5.10483 5.2684 5.43678 5.61027 5.78918 5.97386 6.1647 6.36212 6.56659 6.77864 6.99885 7 6.67164 7 6.88768 7 4.58526 4.73221 4.88336 5.03895 5.19927 5.36459 5.53524 5.71159 5.89401 6.08296 6.2789 6.48238 6.694 6.91445 7 6.80308 7 4.78553 5.16727 5.59402 6.07783 6.63635 7 5.05554 5.43728 5.86403 6.34784 6.90635 7 5.09306 5.4748 5.90155 6.38536 6.94388 7 5.43167 5.81341 6.24016 6.72397 7 5.4691 5.85084 6.27759 6.7614 7 5.63315 6.01489 6.44164 6.92545 7 5.79576 6.1775 6.60425 7 6.01535 6.39709 6.82384 7 6.14299 6.52473 6.95148 7 6.50337 6.65003 6.80026 6.95426 7 6.51137 6.89311 7 6.74441 7 6.99093 7 
</DataArray>

</PointData>
<CellData Scalars=" CellData">
<DataArray type="Float32" Name="radius" NumberOfComponents="1" format="ascii" >
0.023 0.023 0.008 0.008 0.008 0.023 0.008 0.008 0.023 0.008 0.008 0.008 0.008 0.008 0.008 0.008 0.008 0.008 0.008 0.023 0.008 0.008 0.008 
</DataArray>
<DataArray type="Float32" Name="subType" NumberOfComponents="1" format="ascii" >
1 2 3 3 3 2 3 3 2 3 3 3 3 3 3 3 3 3 3 2 3 3 3 
</DataArray>
<DataArray type="Float32" Name="creationTime" NumberOfComponents="1" format="ascii" >
0 4.21691 6.46649 6.69909 6.94304 4.49362 6.67164 6.88768 4.58526 6.80308 4.78553 5.05554 5.09306 5.43167 5.4691 5.63315 5.79576 6.01535 6.14299 6.50337 6.51137 6.74441 6.99093 
</DataArray>

</CellData>
<Points>
<DataArray type="Float32" Name="Coordinates" NumberOfComponents="3" format="ascii" >
0 0 -3 0.0596963 -0.0258402 -3.99788 0.109485 -0.05386 -4.6744 0.126818 -0.0606082 -4.89736 0.164572 -0.0692605 -5.38283 0.204682 -0.0597422 -6.03395 0.208736 -0.0580772 -6.12414 0.225014 -0.0533368 -6.93465 0.227408 -0.0526338 -7.02376 0.230333 -0.0671306 -7.4132 0.239164 -0.0903472 -7.79698 0.253487 -0.108103 -8.31314 0.241651 -0.127199 -8.61121 0.165923 -0.127052 -9.44619 0.164195 -0.126943 -9.46463 0.104612 -0.1286 -9.99905 0.0810853 -0.102292 -10.5631 0.0666421 -0.0823465 -11.1388 0.0594465 -0.044344 -11.6677 0.0520778 -0.00496231 -12.0755 0.0272556 0.021053 -12.4856 0.0172227 -0.0296989 -13.0983 0.0203017 -0.0470747 -13.3277 0.0184933 -0.0556461 -13.6009 0.0178798 -0.0630765 -13.8206 -0.0300889 -0.0815675 -14.4992 -0.060787 -0.0946757 -14.9298 -0.0692124 -0.0871971 -15.3883 -0.0838681 -0.0746945 -15.9452 -0.0903994 -0.0717149 -16.1209 -0.141487 -0.0647981 -17.1195 -0.143497 -0.0644299 -17.1534 -0.15676 -0.0622311 -17.3819 -0.186184 -0.0339278 -17.8534 -0.205711 -0.0146291 -18.1684 -0.206754 -0.00546387 -18.2867 -0.207788 0.00882719 -18.8142 -0.212487 0.0216973 -19.4523 -0.223883 0.0237836 -20.2265 -0.222548 0.0238651 -20.5658 0.0596963 -0.0258402 -3.99788 0.0937078 -0.409213 -4.10682 0.126032 -0.792382 -4.21699 0.167997 -1.16959 -4.34329 0.0951185 -1.55508 -4.4213 0.0210392 -1.94041 -4.49897 -0.0513526 -2.32358 -4.58808 -0.10734 -2.70686 -4.68791 -0.175917 -3.09513 -4.75532 -0.250224 -3.48451 -4.80882 -0.324269 -3.87605 -4.84365 -0.333195 -4.27475 -4.87458 -0.253651 -4.66215 -4.93455 -0.200678 -5.04763 -5.02728 -0.19302 -5.43556 -5.12448 -0.185864 -5.7187 -5.18957 0.0596963 -0.0258402 -3.99788 -0.39054 -0.821106 -3.59188 -0.554844 -1.06458 -3.36819 0.0937078 -0.409213 -4.10682 -0.514827 -0.735276 -4.50496 0.126032 -0.792382 -4.21699 0.0465666 -0.807567 -4.35035 0.109485 -0.05386 -4.6744 -0.0542821 -0.405981 -4.77027 -0.206176 -0.766616 -4.85316 -0.363596 -1.12503 -4.93536 -0.508941 -1.4872 -5.02314 -0.642324 -1.85316 -5.11417 -0.774747 -2.22026 -5.20193 -0.914759 -2.58396 -5.29202 -1.00756 -2.96656 -5.36278 -1.1218 -3.34548 -5.42085 -1.27968 -3.7022 -5.50931 -1.43981 -4.04957 -5.6263 -1.60931 -4.39818 -5.725 -1.76316 -4.75833 -5.8064 -1.93521 -5.11104 -5.8838 -1.93609 -5.11286 -5.8842 0.109485 -0.05386 -4.6744 0.633148 -0.194134 -5.35028 -0.0542821 -0.405981 -4.77027 -0.141919 -0.439415 -5.06074 0.126818 -0.0606082 -4.89736 -0.246153 -0.00782378 -5.03192 -0.608319 0.0771661 -5.17893 -0.966667 0.174598 -5.32757 -1.30321 0.315368 -5.49166 -1.63965 0.456697 -5.65546 -1.99466 0.573113 -5.79835 -2.35025 0.719377 -5.90864 -2.7078 0.864785 -6.01358 -3.0687 0.97969 -6.14222 -3.41639 1.09347 -6.30397 -3.77128 1.15298 -6.47866 -4.12242 1.20712 -6.66242 -4.49188 1.26372 -6.80488 -4.63083 1.28761 -6.85841 0.126818 -0.0606082 -4.89736 0.0286323 0.212019 -5.33994 0.164572 -0.0692605 -5.38283 1.10965 -0.227002 -5.6691 2.01117 -0.529856 -5.97819 2.80494 -0.576051 -6.58465 3.06169 -0.744353 -7.53636 3.18435 -0.793655 -8.09387 0.204682 -0.0597422 -6.03395 1.03638 -0.275807 -6.54541 1.95671 -0.436463 -6.90205 2.91242 -0.382826 -7.19143 3.78662 -0.528327 -7.65468 3.92595 -0.556655 -7.71144 0.208736 -0.0580772 -6.12414 0.8706 0.381847 -6.73111 1.08567 0.915251 -7.54917 1.29627 1.37451 -8.41215 1.30382 1.77139 -9.32999 1.31683 1.77958 -9.42092 0.225014 -0.0533368 -6.93465 -0.461063 -0.603028 -7.41124 -1.0632 -1.15082 -7.99205 -0.992141 -1.7133 -8.81581 -0.913638 -1.7567 -9.32139 0.227408 -0.0526338 -7.02376 0.354755 -0.955332 -7.43476 0.419691 -1.70594 -8.09231 0.780961 -2.3602 -8.75671 1.02306 -2.50581 -9.10199 0.230333 -0.0671306 -7.4132 0.723402 0.648216 -7.90834 1.13459 1.42443 -8.38627 1.58053 2.18405 -8.85967 1.65215 2.27821 -8.93921 0.239164 -0.0903472 -7.79698 0.946098 0.125515 -8.47051 1.46847 0.274848 -9.31005 1.90986 0.356824 -10.0055 0.253487 -0.108103 -8.31314 1.22582 -0.114383 -8.54666 2.18606 -0.0321272 -8.81343 2.53107 -0.0114523 -8.97053 0.241651 -0.127199 -8.61121 0.0164466 0.681109 -9.15519 -0.437496 1.41065 -9.66676 -0.48917 1.48729 -9.7195 0.165923 -0.127052 -9.44619 0.0692126 0.254471 -9.51752 -0.0302818 0.63175 -9.60562 -0.140595 1.00785 -9.68549 -0.173846 1.11631 -9.71376 0.164195 -0.126943 -9.46463 0.50072 -0.927858 -9.9599 0.540562 -1.13315 -10.1171 0.104612 -0.1286 -9.99905 -0.396429 -0.460748 -10.3193 0.0810853 -0.102292 -10.5631 0.086918 -0.124168 -10.5737 
</DataArray>
</Points>
<Lines>
<DataArray type="Int32" Name="connectivity" NumberOfComponents="1" format="ascii" >
0 1 2 3 4 5 6 7 8 9 10 11 12 13 14 15 16 17 18 19 20 21 22 23 24 25 26 27 28 29 30 31 32 33 34 35 36 37 38 39 40 41 42 43 44 45 46 47 48 49 50 51 52 53 54 55 56 57 58 59 60 61 62 63 64 65 66 67 68 69 70 71 72 73 74 75 76 77 78 79 80 81 82 83 84 85 86 87 88 89 90 91 92 93 94 95 96 97 98 99 100 101 102 103 104 105 106 107 108 109 110 111 112 113 114 115 116 117 118 119 120 121 122 123 124 125 126 127 128 129 130 131 132 133 134 135 136 137 138 139 140 141 142 143 144 145 146 147 148 149 150 151 152 153 154 155 156 
</DataArray>
<DataArray type="Int32" Name="offsets" NumberOfComponents="1" format="ascii" >
40 56 59 61 63 79 81 83 98 100 106 112 118 123 128 133 137 141 145 150 153 155 157 
</DataArray>

</Lines>
</Piece>
</PolyData>
</VTKFile>
