<?xml version="1.0"?><VTKFile type="PolyData" version="0.1" byte_order="LittleEndian">
<PolyData>
<Piece NumberOfLines="15" NumberOfPoints="115">
<PointData Scalars=" PointData">
<DataArray type="Float32" Name="time" NumberOfComponents="1" format="ascii" >
0 0.364079 0.412439 0.590776 0.729169 0.982294 1.1221 1.42256 1.59076 1.78821 2.0649 2.34112 2.51354 2.66378 2.74407 2.94663 3.04217 3.16462 3.29531 3.38388 3.50758 3.62385 3.67791 3.82904 4.06308 4.2911 4.47263 4.55222 4.75545 5.02727 5.13251 5.16531 5.41473 5.59185 5.72827 5.90722 6.10667 6.12928 6.44271 6.81448 6.94756 7 4.21342 4.59516 5.02191 5.50572 6.06423 6.72482 7 4.267 4.64875 5.0755 5.5593 6.11782 6.77841 7 4.46468 4.84642 5.27317 5.75698 6.3155 6.97608 7 4.61815 4.9999 5.42665 5.91046 6.46897 7 4.89902 5.28076 5.70751 6.19132 6.74984 7 5.05423 5.43597 5.86272 6.34653 6.90505 7 5.38803 5.76977 6.19652 6.68033 7 5.57503 5.72178 5.87229 6.02676 6.1854 6.34846 6.51617 6.68882 6.8667 7 5.79466 6.1764 6.60315 7 6.10264 6.48438 6.91113 7 6.41037 6.79211 7 6.60259 6.98433 7 6.77016 6.91691 7 6.85975 7 
</DataArray>

</PointData>
<CellData Scalars=" CellData">
<DataArray type="Float32" Name="radius" NumberOfComponents="1" format="ascii" >
0.023 0.008 0.008 0.008 0.008 0.008 0.008 0.008 0.023 0.008 0.008 0.008 0.008 0.023 0.008 
</DataArray>
<DataArray type="Float32" Name="subType" NumberOfComponents="1" format="ascii" >
1 3 3 3 3 3 3 3 2 3 3 3 3 2 3 
</DataArray>
<DataArray type="Float32" Name="creationTime" NumberOfComponents="1" format="ascii" >
0 4.21342 4.267 4.46468 4.61815 4.89902 5.05423 5.38803 5.57503 5.79466 6.10264 6.41037 6.60259 6.77016 6.85975 
</DataArray>

</CellData>
<Points>
<DataArray type="Float32" Name="Coordinates" NumberOfComponents="3" format="ascii" >
0 0 -3 -0.0123452 0.00108471 -3.99992 -0.0149051 0.00146176 -4.132 -0.0178026 -0.00108991 -4.61766 -0.0211167 -0.00393389 -4.99294 -0.0193408 0.00518792 -5.67575 -0.0246994 -0.000696603 -6.05086 -0.0171397 -0.010215 -6.8524 -0.0236188 -0.00945378 -7.29833 -0.023667 -0.0141911 -7.81928 -0.024183 -0.0404854 -8.54424 -0.0209676 -0.0215696 -9.26289 -0.0198111 -0.00261087 -9.70858 -0.0286697 0.00584054 -10.0954 -0.0333285 0.0175152 -10.3012 -0.0148886 0.0560758 -10.8177 -0.00164351 0.0570064 -11.0608 0.00942854 0.0679945 -11.3715 0.0246223 0.061447 -11.7021 0.0299948 0.0568264 -11.9256 0.0366 0.0497626 -12.2369 0.041272 0.0436978 -12.5287 0.0433189 0.0396932 -12.6639 0.0339987 0.0504721 -13.0411 0.0303277 0.0780026 -13.6219 0.0700176 0.0500644 -14.1829 0.102667 0.0293575 -14.627 0.103556 0.0127001 -14.8211 0.108478 0.000654484 -15.3164 0.0985319 -0.0191514 -15.9746 0.0858587 -0.0325025 -16.2276 0.082595 -0.0368912 -16.3063 0.0603011 -0.0593465 -16.9034 0.0465675 -0.0762259 -17.325 0.0340286 -0.0830808 -17.6485 0.0351085 -0.103265 -18.071 0.0398939 -0.112248 -18.54 0.0396757 -0.113854 -18.5929 0.0369756 -0.131584 -19.3244 0.0405528 -0.167134 -20.1836 0.0402809 -0.178361 -20.4892 0.0451516 -0.184573 -20.6091 -0.0123452 0.00108471 -3.99992 -0.538489 -0.722307 -4.447 -1.08857 -1.38752 -4.95187 -1.77086 -2.11336 -5.03928 -2.57722 -2.66778 -5.2452 -3.19307 -3.12963 -5.8835 -3.39898 -3.29417 -6.13699 -0.0149051 0.00146176 -4.132 0.902133 0.0856772 -4.5218 1.77711 0.203548 -4.9914 2.72602 0.328331 -5.28121 3.67279 0.113499 -5.52097 4.36264 -0.361443 -6.06736 4.56348 -0.500859 -6.23534 -0.0178026 -0.00108991 -4.61766 -0.960373 -0.104156 -4.93537 -1.75409 0.27633 -5.40997 -2.44835 0.361298 -6.12466 -3.11722 0.457836 -6.86174 -3.86617 0.517063 -7.52171 -3.89074 0.521163 -7.5432 -0.0211167 -0.00393389 -4.99294 0.253896 -0.892026 -5.36126 0.497762 -1.82084 -5.64024 0.106057 -2.73937 -5.58664 -0.402397 -3.59563 -5.67776 -0.720069 -4.30454 -5.93391 -0.0193408 0.00518792 -5.67575 -0.834144 0.451941 -6.04522 -1.643 0.898427 -6.42784 -2.50507 1.29371 -6.745 -3.32426 1.79372 -7.02594 -3.57391 2.01479 -7.24737 -0.0246994 -0.000696603 -6.05086 -0.77794 0.107854 -6.69958 -1.50249 0.204102 -7.38206 -2.01105 0.143869 -8.24097 -2.59592 -0.0966494 -9.01562 -2.70563 -0.15133 -9.11079 -0.0171397 -0.010215 -6.8524 -0.794058 -0.571215 -7.13819 -1.56646 -1.20624 -7.15025 -2.34101 -1.83875 -7.14911 -2.8107 -2.19381 -7.20173 -0.0236188 -0.00945378 -7.29833 -0.15894 0.354724 -7.39352 -0.266807 0.70945 -7.54364 -0.372263 1.06568 -7.6919 -0.481162 1.43017 -7.81553 -0.577083 1.79399 -7.9513 -0.595748 2.16892 -8.08943 -0.62624 2.54405 -8.22489 -0.692455 2.92555 -8.32524 -0.761642 3.20031 -8.39552 -0.023667 -0.0141911 -7.81928 -0.246272 0.648726 -8.53412 -0.818763 1.21538 -9.1267 -1.29567 1.69104 -9.61161 -0.024183 -0.0404854 -8.54424 -0.279872 -0.963878 -8.83054 -0.591295 -1.85147 -9.16994 -0.656546 -2.02491 -9.2268 -0.0209676 -0.0215696 -9.26289 -0.0289746 0.927373 -9.57824 -0.0282579 1.40792 -9.72296 -0.0198111 -0.00261087 -9.70858 0.574922 0.800736 -9.73902 0.601493 0.828959 -9.74139 -0.0286697 0.00584054 -10.0954 -0.364079 0.204419 -10.1852 -0.548073 0.317237 -10.2376 -0.0333285 0.0175152 -10.3012 -0.193276 -0.295355 -10.4451 
</DataArray>
</Points>
<Lines>
<DataArray type="Int32" Name="connectivity" NumberOfComponents="1" format="ascii" >
0 1 2 3 4 5 6 7 8 9 10 11 12 13 14 15 16 17 18 19 20 21 22 23 24 25 26 27 28 29 30 31 32 33 34 35 36 37 38 39 40 41 42 43 44 45 46 47 48 49 50 51 52 53 54 55 56 57 58 59 60 61 62 63 64 65 66 67 68 69 70 71 72 73 74 75 76 77 78 79 80 81 82 83 84 85 86 87 88 89 90 91 92 93 94 95 96 97 98 99 100 101 102 103 104 105 106 107 108 109 110 111 112 113 114 
</DataArray>
<DataArray type="Int32" Name="offsets" NumberOfComponents="1" format="ascii" >
42 49 56 63 69 75 81 86 96 100 104 107 110 113 115 
</DataArray>

</Lines>
</Piece>
</PolyData>
</VTKFile>
