<?xml version="1.0"?><VTKFile type="PolyData" version="0.1" byte_order="LittleEndian">
<PolyData>
<Piece NumberOfLines="542" NumberOfPoints="5303">
<PointData Scalars=" PointData">
<DataArray type="Float32" Name="time" NumberOfComponents="1" format="ascii" >
0 0.364105 0.386762 0.50787 0.527747 0.726473 0.916515 1.10118 1.22862 1.34714 1.43295 1.55307 1.79931 1.81229 1.84301 2.04849 2.27344 2.55085 2.73776 2.79479 2.98827 3.24874 3.50528 3.68333 3.86578 3.9732 4.11891 4.32083 4.55453 4.65242 4.90742 5.02433 5.27329 5.43761 5.70913 5.98805 6.17239 6.24493 6.42293 6.67747 6.79859 6.93302 7.10676 7.35753 7.53579 7.6418 7.77071 7.90617 8.11498 8.31872 8.44339 8.52144 8.57542 8.84029 9.05099 9.35482 9.56195 9.77562 10.0795 10.2069 10.4153 10.6316 10.8862 11.0465 11.3675 11.5825 11.7109 11.847 12.0338 12.0979 12.1683 12.3713 12.4672 12.5771 12.7822 13.0919 13.1052 13.4016 13.5128 13.7506 13.8651 13.9842 14.096 14.2183 14.5044 14.6016 14.8147 14.9916 15.2612 15.6848 15.8778 16.2446 16.3528 16.6621 16.9559 17.2523 17.2736 17.6168 17.694 18.0528 18.2883 18.6747 19.0406 19.4277 19.7179 19.9182 20 4.21706 4.3639 4.51471 4.66971 4.82914 4.99327 5.16236 5.33674 5.51675 5.70275 5.89518 6.09447 6.30115 6.51578 6.739 6.97152 7.21416 7.46783 7.73358 8.01262 8.30636 8.61642 8.94473 9.29358 9.6657 10.0644 10.4938 11.7389 13.3441 15.6065 19.474 20 6.40744 6.78918 7.21593 7.69974 8.25825 8.91884 9.72733 10.7697 12.2387 14.7501 20 6.62628 7.00802 7.43477 7.91858 8.4771 9.13768 9.94617 10.9885 12.4576 14.969 20 6.85405 7.23579 7.66254 8.14635 8.70487 9.36546 10.1739 11.2163 12.6853 15.1968 20 7.09152 7.47326 7.90001 8.38382 8.94234 9.60293 10.4114 11.4537 12.9228 15.4342 20 7.33955 7.72129 8.14804 8.63185 9.19037 9.85095 10.6594 11.7018 13.1708 15.6823 20 7.59912 7.98086 8.40761 8.89142 9.44994 10.1105 10.919 11.9613 13.4304 15.9418 20 7.87135 8.25309 8.67985 9.16365 9.72217 10.3828 11.1912 12.2336 13.7027 16.2141 20 8.15756 8.5393 8.96605 9.44986 10.0084 10.669 11.4774 12.5198 13.9889 16.5003 20 8.45924 8.84098 9.26773 9.75154 10.3101 10.9706 11.7791 12.8215 14.2905 16.8019 20 8.77816 9.1599 9.58665 10.0705 10.629 11.2896 12.0981 13.1404 14.6095 17.1209 20 9.11643 9.49817 9.92492 10.4087 10.9672 11.6278 12.4363 13.4787 14.9477 17.4591 20 9.47654 9.85828 10.285 10.7688 11.3274 11.9879 12.7964 13.8388 15.3078 17.8192 20 9.8615 10.2432 10.67 11.1538 11.7123 12.3729 13.1814 14.2237 15.6928 18.2042 20 10.275 10.6567 11.0835 11.5673 12.1258 12.7864 13.5949 14.6372 16.1063 18.6177 20 10.7216 11.1034 11.5301 12.0139 12.5724 13.233 14.0415 15.0838 16.5529 19.0643 20 11.2071 11.5889 12.0156 12.4994 13.0579 13.7185 14.527 15.5693 17.0384 19.5498 20 11.7389 12.1207 12.5474 13.0312 13.5897 14.2503 15.0588 16.1011 17.5702 20 12.3268 12.7085 13.1353 13.6191 14.1776 14.8382 15.6467 16.689 18.1581 20 12.984 13.3657 13.7925 14.2763 14.8348 15.4954 16.3039 17.3462 18.8153 20 13.7291 14.1108 14.5375 15.0214 15.5799 16.2405 17.049 18.0913 19.5604 20 14.5892 14.9709 15.3977 15.8815 16.44 17.1006 17.9091 18.9514 20 15.6065 15.9882 16.415 16.8988 17.4573 18.1179 18.9264 19.9687 20 16.8516 17.2333 17.66 18.1439 18.7024 19.363 20 18.4567 18.8385 19.2652 19.749 20 4.2422 4.62394 5.05069 5.5345 6.09302 6.7536 7.5621 8.60442 10.0735 12.5849 20 4.37664 4.75838 5.18513 5.66894 6.22746 6.88804 7.69654 8.73886 10.2079 12.7193 20 4.39871 4.78045 5.2072 5.69101 6.24953 6.91011 7.71861 8.76093 10.23 12.7414 20 4.61943 5.00117 5.42792 5.91173 6.47025 7.13083 7.93933 8.98165 10.4507 12.9621 20 4.83063 4.97783 5.12979 5.28681 5.44924 5.61748 5.79195 5.97313 6.16156 6.35784 6.56267 6.7768 7.00114 7.23669 7.48465 7.74639 8.02354 8.31802 8.63215 8.96873 9.33123 10.3823 11.7373 13.6471 16.9119 20 7.11744 7.49918 7.92593 8.40974 8.96826 9.62884 10.4373 11.4797 12.9487 15.4601 20 7.35904 7.74078 8.16753 8.65134 9.20986 9.87044 10.6789 11.7213 13.1903 15.7017 20 7.6137 7.99545 8.4222 8.906 9.46452 10.1251 10.9336 11.9759 13.445 15.9564 20 7.88293 8.26467 8.69142 9.17523 9.73375 10.3943 11.2028 12.2451 13.7142 16.2256 20 8.16848 8.55022 8.97697 9.46078 10.0193 10.6799 11.4884 12.5307 13.9998 16.5112 20 8.47247 8.85421 9.28096 9.76477 10.3233 10.9839 11.7924 12.8347 14.3038 16.8152 20 8.79743 9.17917 9.60592 10.0897 10.6482 11.3088 12.1173 13.1597 14.6287 17.1401 20 9.14649 9.52823 9.95498 10.4388 10.9973 11.6579 12.4664 13.5087 14.9778 17.4892 20 9.5235 9.90524 10.332 10.8158 11.3743 12.0349 12.8434 13.8857 15.3548 17.8662 20 9.93334 10.3151 10.7418 11.2256 11.7842 12.4447 13.2532 14.2956 15.7646 18.276 20 10.3823 10.764 11.1908 11.6746 12.2331 12.8937 13.7022 14.7445 16.2136 18.725 20 10.8785 11.2603 11.687 12.1708 12.7293 13.3899 14.1984 15.2407 16.7098 19.2212 20 11.4333 11.815 12.2418 12.7256 13.2841 13.9447 14.7532 15.7955 17.2646 19.776 20 12.0623 12.444 12.8707 13.3546 13.9131 14.5737 15.3821 16.4245 17.8936 20 12.7883 13.1701 13.5968 14.0806 14.6391 15.2997 16.1082 17.1505 18.6196 20 13.6471 14.0288 14.4556 14.9394 15.4979 16.1585 16.967 18.0093 19.4784 20 14.6981 15.0799 15.5066 15.9904 16.5489 17.2095 18.018 19.0603 20 16.0532 16.4349 16.8616 17.3455 17.904 18.5646 19.373 20 17.963 18.3447 18.7714 19.2553 19.8138 20 5.03597 5.41771 5.84446 6.32827 6.88679 7.54738 8.35587 9.39819 10.8673 13.3787 20 5.17774 5.32469 5.47584 5.63143 5.79174 5.95707 6.12772 6.30407 6.48649 6.67544 6.87138 7.07486 7.28648 7.50693 7.73696 7.97744 8.22939 8.49394 8.77242 9.06637 9.37763 9.70835 10.0611 10.4391 10.8463 12.0267 13.5485 15.6933 19.36 20 7.39556 7.7773 8.20405 8.68786 9.24637 9.90696 10.7154 11.7578 13.2269 15.7383 20 7.62069 8.00243 8.42918 8.91299 9.47151 10.1321 10.9406 11.9829 13.452 15.9634 20 7.85583 8.23757 8.66432 9.14813 9.70665 10.3672 11.1757 12.2181 13.6871 16.1985 20 8.10192 8.48366 8.91041 9.39422 9.95274 10.6133 11.4218 12.4641 13.9332 16.4446 20 8.36001 8.74175 9.1685 9.65231 10.2108 10.8714 11.6799 12.7222 14.1913 16.7027 20 8.63134 9.01309 9.43984 9.92365 10.4822 11.1427 11.9512 12.9936 14.4626 16.974 20 8.91735 9.29909 9.72584 10.2097 10.7682 11.4288 12.2372 13.2796 14.7486 17.2601 20 9.21971 9.60145 10.0282 10.512 11.0705 11.7311 12.5396 13.5819 15.051 17.5624 20 9.54041 9.92215 10.3489 10.8327 11.3912 12.0518 12.8603 13.9026 15.3717 17.8831 20 9.88181 10.2635 10.6903 11.1741 11.7326 12.3932 13.2017 14.244 15.7131 18.2245 20 10.2468 10.6285 11.0553 11.5391 12.0976 12.7582 13.5667 14.609 16.0781 18.5895 20 10.6388 11.0205 11.4473 11.9311 12.4896 13.1502 13.9587 15.001 16.4701 18.9815 20 11.0622 11.4439 11.8707 12.3545 12.913 13.5736 14.3821 15.4244 16.8935 19.4049 20 11.5225 11.9042 12.331 12.8148 13.3733 14.0339 14.8424 15.8847 17.3538 19.8652 20 12.0267 12.4084 12.8351 13.319 13.8775 14.5381 15.3466 16.3889 17.858 20 12.584 12.9657 13.3925 13.8763 14.4348 15.0954 15.9039 16.9462 18.4153 20 13.2071 13.5888 14.0155 14.4994 15.0579 15.7185 16.5269 17.5693 19.0384 20 13.9134 14.2952 14.7219 15.2057 15.7642 16.4248 17.2333 18.2756 19.7447 20 14.7289 15.1106 15.5373 16.0212 16.5797 17.2403 18.0487 19.0911 20 15.6933 16.075 16.5018 16.9856 17.5441 18.2047 19.0132 20 16.8737 17.2554 17.6822 18.166 18.7245 19.3851 20 18.3955 18.7772 19.204 19.6878 20 5.30965 5.69139 6.11814 6.60195 7.16047 7.82105 8.62954 9.67187 11.1409 13.6523 20 5.40517 5.55244 5.70463 5.86207 6.02513 6.19423 6.36984 6.55247 6.74272 6.94123 7.14878 7.36621 7.59452 7.83485 8.08854 8.35716 8.64258 8.94704 9.27327 9.62461 10.6433 11.9566 13.8077 16.972 20 7.71311 8.09485 8.5216 9.00541 9.56392 10.2245 11.033 12.0753 13.5444 16.0558 20 7.95993 8.34167 8.76842 9.25223 9.81075 10.4713 11.2798 12.3222 13.7912 16.3026 20 8.22087 8.60262 9.02937 9.51317 10.0717 10.7323 11.5408 12.5831 14.0522 16.5636 20 8.49764 8.87938 9.30613 9.78994 10.3485 11.009 11.8175 12.8599 14.3289 16.8403 20 8.79227 9.17401 9.60076 10.0846 10.6431 11.3037 12.1122 13.1545 14.6236 17.135 20 9.10724 9.48898 9.91573 10.3995 10.9581 11.6186 12.4271 13.4695 14.9385 17.4499 20 9.44556 9.8273 10.254 10.7379 11.2964 11.957 12.7655 13.8078 15.2769 17.7883 20 9.81097 10.1927 10.6195 11.1033 11.6618 12.3224 13.1309 14.1732 15.6423 18.1537 20 10.2082 10.5899 11.0167 11.5005 12.059 12.7196 13.5281 14.5704 16.0395 18.5509 20 10.6433 11.025 11.4518 11.9356 12.4941 13.1547 13.9632 15.0055 16.4746 18.986 20 11.1243 11.506 11.9328 12.4166 12.9751 13.6357 14.4442 15.4865 16.9556 19.467 20 11.662 12.0437 12.4705 12.9543 13.5128 14.1734 14.9819 16.0242 17.4933 20 12.2716 12.6533 13.0801 13.5639 14.1224 14.783 15.5915 16.6338 18.1029 20 12.9753 13.3571 13.7838 14.2676 14.8262 15.4867 16.2952 17.3376 18.8066 20 13.8077 14.1894 14.6162 15.1 15.6585 16.3191 17.1276 18.1699 19.639 20 14.8264 15.2081 15.6349 16.1187 16.6772 17.3378 18.1463 19.1886 20 16.1397 16.5214 16.9482 17.432 17.9905 18.6511 19.4596 20 17.9907 18.3725 18.7992 19.283 19.8416 20 5.53893 5.92067 6.34742 6.83123 7.38975 8.05034 8.85883 9.90115 11.3702 13.8816 20 5.8133 6.19504 6.62179 7.1056 7.66412 8.3247 9.1332 10.1755 11.6446 14.156 20 5.82777 6.20951 6.63626 7.12007 7.67859 8.33918 9.14767 10.19 11.6591 14.1705 20 5.86202 6.00886 6.15967 6.31467 6.4741 6.63823 6.80732 6.9817 7.16171 7.34771 7.54014 7.73943 7.94611 8.16074 8.38396 8.61648 8.85912 9.11279 9.37854 9.65758 9.95132 10.2614 10.5897 10.9385 11.3107 11.7094 12.1388 13.3839 14.9891 17.2514 20 8.0524 8.43414 8.86089 9.3447 9.90321 10.5638 11.3723 12.4146 13.8837 16.3951 20 8.27124 8.65298 9.07973 9.56354 10.1221 10.7826 11.5911 12.6335 14.1025 16.6139 20 8.49901 8.88075 9.3075 9.79131 10.3498 11.0104 11.8189 12.8612 14.3303 16.8417 20 8.73648 9.11822 9.54497 10.0288 10.5873 11.2479 12.0564 13.0987 14.5678 17.0792 20 8.98451 9.36625 9.793 10.2768 10.8353 11.4959 12.3044 13.3467 14.8158 17.3272 20 9.24408 9.62582 10.0526 10.5364 11.0949 11.7555 12.564 13.6063 15.0754 17.5868 20 9.51631 9.89805 10.3248 10.8086 11.3671 12.0277 12.8362 13.8785 15.3476 17.859 20 9.80252 10.1843 10.611 11.0948 11.6533 12.3139 13.1224 14.1647 15.6338 18.1452 20 10.1042 10.4859 10.9127 11.3965 11.955 12.6156 13.4241 14.4664 15.9355 18.4469 20 10.4231 10.8049 11.2316 11.7154 12.2739 12.9345 13.743 14.7853 16.2544 18.7658 20 10.7614 11.1431 11.5699 12.0537 12.6122 13.2728 14.0813 15.1236 16.5927 19.1041 20 11.1215 11.5032 11.93 12.4138 12.9723 13.6329 14.4414 15.4837 16.9528 19.4642 20 11.5065 11.8882 12.3149 12.7988 13.3573 14.0179 14.8264 15.8687 17.3378 19.8492 20 11.92 12.3017 12.7284 13.2123 13.7708 14.4314 15.2399 16.2822 17.7513 20 12.3666 12.7483 13.1751 13.6589 14.2174 14.878 15.6865 16.7288 18.1979 20 12.8521 13.2338 13.6606 14.1444 14.7029 15.3635 16.172 17.2143 18.6834 20 13.3839 13.7656 14.1924 14.6762 15.2347 15.8953 16.7038 17.7461 19.2152 20 13.9718 14.3535 14.7802 15.2641 15.8226 16.4832 17.2916 18.334 19.8031 20 14.629 15.0107 15.4374 15.9213 16.4798 17.1404 17.9488 18.9912 20 15.374 15.7558 16.1825 16.6663 17.2248 17.8854 18.6939 19.7362 20 16.2341 16.6159 17.0426 17.5264 18.085 18.7455 19.554 20 17.2514 17.6332 18.0599 18.5437 19.1023 19.7628 20 18.4965 18.8783 19.305 19.7888 20 6.09116 6.4729 6.89965 7.38346 7.94198 8.60256 9.41105 10.4534 11.9225 14.4339 20 6.34218 6.72392 7.15067 7.63448 8.193 8.85359 9.66208 10.7044 12.1735 14.6849 20 6.65199 6.79874 6.94925 7.10372 7.26237 7.42542 7.59313 7.76578 7.94366 8.1271 8.31645 8.51213 8.71454 8.92419 9.14161 9.36739 9.6022 9.8468 10.102 10.3689 10.6484 10.942 11.251 11.5771 11.9225 12.2895 12.6809 13.1004 13.5521 14.8619 16.5504 18.9303 20 8.81843 9.20017 9.62692 10.1107 10.6693 11.3298 12.1383 13.1807 14.6497 17.1611 20 9.0319 9.41364 9.84039 10.3242 10.8827 11.5433 12.3518 13.3941 14.8632 17.3746 20 9.25341 9.63516 10.0619 10.5457 11.1042 11.7648 12.5733 13.6156 15.0847 17.5961 20 9.48362 9.86536 10.2921 10.7759 11.3344 11.995 12.8035 13.8458 15.3149 17.8263 20 9.72323 10.105 10.5317 11.0155 11.574 12.2346 13.0431 14.0855 15.5545 18.0659 20 9.97304 10.3548 10.7815 11.2653 11.8239 12.4844 13.2929 14.3353 15.8043 18.3157 20 10.2339 10.6157 11.0424 11.5262 12.0848 12.7454 13.5538 14.5962 16.0652 18.5766 20 10.507 10.8887 11.3155 11.7993 12.3578 13.0184 13.8269 14.8692 16.3383 18.8497 20 10.7934 11.1751 11.6019 12.0857 12.6442 13.3048 14.1133 15.1556 16.6247 19.1361 20 11.0944 11.4762 11.9029 12.3867 12.9453 13.6059 14.4143 15.4567 16.9257 19.4371 20 11.4118 11.7935 12.2203 12.7041 13.2626 13.9232 14.7317 15.774 17.2431 19.7545 20 11.7473 12.129 12.5558 13.0396 13.5981 14.2587 15.0672 16.1095 17.5786 20 12.1031 12.4849 12.9116 13.3954 13.954 14.6145 15.423 16.4654 17.9344 20 12.4819 12.8637 13.2904 13.7742 14.3328 14.9934 15.8018 16.8442 18.3132 20 12.8869 13.2686 13.6954 14.1792 14.7377 15.3983 16.2068 17.2491 18.7182 20 13.3219 13.7036 14.1304 14.6142 15.1727 15.8333 16.6418 17.6841 19.1532 20 13.7917 14.1734 14.6002 15.084 15.6425 16.3031 17.1116 18.1539 19.623 20 14.3024 14.6842 15.1109 15.5947 16.1532 16.8138 17.6223 18.6646 20 14.8619 15.2436 15.6703 16.1542 16.7127 17.3733 18.1817 19.2241 20 15.4803 15.862 16.2888 16.7726 17.3311 17.9917 18.8002 19.8425 20 16.1716 16.5533 16.9801 17.4639 18.0224 18.683 19.4915 20 16.9554 17.3371 17.7639 18.2477 18.8062 19.4668 20 17.8602 18.2419 18.6687 19.1525 19.711 20 18.9303 19.3121 19.7388 20 6.86088 7.24262 7.66937 8.15318 8.7117 9.37228 10.1808 11.2231 12.6922 15.2036 20 6.92464 7.07159 7.22274 7.37834 7.53865 7.70397 7.87462 8.05097 8.23339 8.42234 8.61828 8.82176 9.03338 9.25383 9.48386 9.72435 9.97629 10.2408 10.5193 10.8133 11.1245 11.4553 11.808 12.1861 12.5932 13.7736 15.2954 17.4402 20 9.14246 9.5242 9.95095 10.4348 10.9933 11.6539 12.4624 13.5047 14.9738 17.4852 20 9.36759 9.74933 10.1761 10.6599 11.2184 11.879 12.6875 13.7298 15.1989 17.7103 20 9.60274 9.98448 10.4112 10.895 11.4536 12.1141 12.9226 13.965 15.434 17.9454 20 9.84882 10.2306 10.6573 11.1411 11.6996 12.3602 13.1687 14.211 15.6801 18.1915 20 10.1069 10.4887 10.9154 11.3992 11.9577 12.6183 13.4268 14.4691 15.9382 18.4496 20 10.3782 10.76 11.1867 11.6705 12.2291 12.8896 13.6981 14.7405 16.2095 18.7209 20 10.6643 11.046 11.4727 11.9566 12.5151 13.1757 13.9841 15.0265 16.4956 19.007 20 10.9666 11.3484 11.7751 12.2589 12.8174 13.478 14.2865 15.3288 16.7979 19.3093 20 11.2873 11.6691 12.0958 12.5796 13.1381 13.7987 14.6072 15.6495 17.1186 19.63 20 11.6287 12.0104 12.4372 12.921 13.4795 14.1401 14.9486 15.9909 17.46 19.9714 20 11.9937 12.3754 12.8022 13.286 13.8445 14.5051 15.3136 16.3559 17.825 20 12.3857 12.7674 13.1942 13.678 14.2365 14.8971 15.7056 16.7479 18.217 20 12.8091 13.1908 13.6176 14.1014 14.6599 15.3205 16.129 17.1713 18.6404 20 13.2694 13.6511 14.0779 14.5617 15.1202 15.7808 16.5893 17.6316 19.1007 20 13.7736 14.1553 14.5821 15.0659 15.6244 16.285 17.0935 18.1358 19.6049 20 14.3309 14.7126 15.1394 15.6232 16.1817 16.8423 17.6508 18.6931 20 14.954 15.3357 15.7624 16.2463 16.8048 17.4654 18.2739 19.3162 20 15.6603 16.0421 16.4688 16.9526 17.5111 18.1717 18.9802 20 16.4758 16.8575 17.2842 17.7681 18.3266 18.9872 19.7956 20 17.4402 17.8219 18.2487 18.7325 19.291 19.9516 20 18.6206 19.0023 19.4291 19.9129 20 7.14105 7.28784 7.4385 7.59323 7.75225 7.91583 8.08421 8.2577 8.43661 8.62129 8.81213 9.00955 9.21402 9.42607 9.64627 9.87529 10.1139 10.3628 10.623 10.8957 11.182 11.4834 11.8015 12.1383 12.4962 12.878 13.2871 13.7277 15.0051 16.6519 18.9731 20 9.31906 9.7008 10.1276 10.6114 11.1699 11.8305 12.639 13.6813 15.1504 17.6618 20 9.53511 9.91685 10.3436 10.8274 11.3859 12.0465 12.855 13.8973 15.3664 17.8778 20 9.75964 10.1414 10.5681 11.0519 11.6105 12.271 13.0795 14.1219 15.5909 18.1023 20 9.99333 10.3751 10.8018 11.2856 11.8441 12.5047 13.3132 14.3555 15.8246 18.336 20 10.237 10.6187 11.0455 11.5293 12.0878 12.7484 13.5569 14.5992 16.0683 18.5797 20 10.4914 10.8732 11.2999 11.7837 12.3423 13 13.8078 14.8489 16.3156 18.82 20 10.7577 11.1395 11.5662 12.05 12.6086 13.2692 14.0776 15.12 16.589 19.1004 20 11.0371 11.4188 11.8455 12.3294 12.8879 13.5485 14.3569 15.3993 16.8684 19.3798 20 11.3307 11.7124 12.1392 12.623 13.1815 13.8421 14.6506 15.6929 17.162 19.6734 20 11.6402 12.0219 12.4487 12.9325 13.491 14.1516 14.9601 16.0024 17.4715 19.9829 20 11.9674 12.3492 12.7759 13.2597 13.8182 14.4788 15.2873 16.3296 17.7987 20 12.3145 12.6962 13.123 13.6068 14.1653 14.8259 15.6344 16.6767 18.1458 20 12.6839 13.0657 13.4924 13.9762 14.5347 15.1953 16.0038 17.0461 18.5152 20 13.0789 13.4606 13.8874 14.3712 14.9297 15.5903 16.3988 17.4411 18.9102 20 13.5031 13.8849 14.3116 14.7954 15.3539 16.0145 16.823 17.8654 19.3344 20 13.9613 14.3431 14.7698 15.2536 15.8122 16.4727 17.2812 18.3236 19.7926 20 14.4595 14.8412 15.2679 15.7518 16.3103 16.9709 17.7793 18.8217 20 15.0051 15.3868 15.8136 16.2974 16.8559 17.5165 18.325 19.3673 20 15.6082 15.99 16.4167 16.9005 17.459 18.1196 18.9281 19.9704 20 16.2825 16.6642 17.091 17.5748 18.1333 18.7939 19.6024 20 17.0469 17.4286 17.8554 18.3392 18.8977 19.5583 20 17.9294 18.3111 18.7379 19.2217 19.7802 20 18.9731 19.3548 19.7816 20 7.4326 7.57944 7.73025 7.88525 8.04468 8.20881 8.3779 8.55228 8.73229 8.91829 9.11072 9.31001 9.51669 9.73132 9.95454 10.1871 10.4297 10.6834 10.9491 11.2282 11.5219 11.832 12.1603 12.5091 12.8812 13.28 13.7094 14.9545 16.5596 18.822 20 9.62298 10.0047 10.4315 10.9153 11.4738 12.1344 12.9429 13.9852 15.4543 17.9657 20 9.84182 10.2236 10.6503 11.1341 11.6926 12.3532 13.1617 14.204 15.6731 18.1845 20 10.0696 10.4513 10.8781 11.3619 11.9204 12.581 13.3895 14.4318 15.9009 18.4123 20 10.3071 10.6888 11.1156 11.5994 12.1579 12.8185 13.627 14.6693 16.1384 18.6498 20 10.5551 10.9368 11.3636 11.8474 12.4059 13.0665 13.875 14.9173 16.3864 18.8978 20 10.8147 11.1964 11.6231 12.107 12.6655 13.3261 14.1346 15.1769 16.646 19.1574 20 11.0869 11.4686 11.8954 12.3792 12.9377 13.5983 14.4068 15.4491 16.9182 19.4296 20 11.3731 11.7548 12.1816 12.6654 13.2239 13.8845 14.693 15.7353 17.2044 19.7158 20 11.6748 12.0565 12.4833 12.9671 13.5256 14.1862 14.9947 16.037 17.5061 20 11.9937 12.3754 12.8022 13.286 13.8445 14.5051 15.3136 16.3559 17.825 20 12.332 12.7137 13.1405 13.6243 14.1828 14.8434 15.6519 16.6942 18.1633 20 12.6921 13.0738 13.5006 13.9844 14.5429 15.2035 16.012 17.0543 18.5234 20 13.077 13.4588 13.8855 14.3693 14.9279 15.5884 16.3969 17.4393 18.9083 20 13.4905 13.8723 14.299 14.7828 15.3414 16.0019 16.8104 17.8528 19.3218 20 13.9372 14.3189 14.7456 15.2295 15.788 16.4486 17.257 18.2994 19.7684 20 14.4227 14.8044 15.2311 15.715 16.2735 16.9341 17.7425 18.7849 20 14.9545 15.3362 15.7629 16.2468 16.8053 17.4659 18.2743 19.3167 20 15.5423 15.9241 16.3508 16.8346 17.3932 18.0537 18.8622 19.9046 20 16.1995 16.5813 17.008 17.4918 18.0503 18.7109 19.5194 20 16.9446 17.3263 17.7531 18.2369 18.7954 19.456 20 17.8047 18.1865 18.6132 19.097 19.6555 20 18.822 19.2038 19.6305 20 7.71998 8.10172 8.52847 9.01228 9.5708 10.2314 11.0399 12.0822 13.5513 16.0627 20 7.91958 8.30132 8.72807 9.21188 9.7704 10.431 11.2395 12.2818 13.7509 16.2623 20 8.12424 8.27099 8.4215 8.57597 8.73462 8.89767 9.06538 9.23803 9.41591 9.59935 9.78871 9.98438 10.1868 10.3964 10.6139 10.8396 11.0745 11.3191 11.5743 11.8411 12.1207 12.4142 12.7232 13.0494 13.3948 13.7617 14.1532 14.5726 15.0243 16.3341 18.0227 20 10.2907 10.6724 11.0992 11.583 12.1415 12.8021 13.6106 14.6529 16.122 18.6334 20 10.5041 10.8859 11.3126 11.7964 12.355 13.0155 13.824 14.8664 16.3354 18.8468 20 10.7257 11.1074 11.5342 12.018 12.5765 13.2371 14.0456 15.0879 16.557 19.0684 20 10.9559 11.3376 11.7644 12.2482 12.8067 13.4673 14.2758 15.3181 16.7872 19.2986 20 11.1955 11.5772 12.004 12.4878 13.0463 13.7069 14.5154 15.5577 17.0268 19.5382 20 11.4453 11.827 12.2538 12.7376 13.2961 13.9567 14.7652 15.8075 17.2766 19.788 20 11.7062 12.0879 12.5147 12.9985 13.557 14.2176 15.0261 16.0684 17.5375 20 11.9793 12.361 12.7877 13.2716 13.8301 14.4907 15.2991 16.3415 17.8105 20 12.2656 12.6474 13.0741 13.5579 14.1164 14.777 15.5855 16.6279 18.0969 20 12.5667 12.9484 13.3752 13.859 14.4175 15.0781 15.8866 16.9289 18.398 20 12.8841 13.2658 13.6925 14.1764 14.7349 15.3955 16.2039 17.2463 18.7153 20 13.2195 13.6013 14.028 14.5118 15.0704 15.7309 16.5394 17.5818 19.0508 20 13.5754 13.9571 14.3839 14.8677 15.4262 16.0868 16.8953 17.9376 19.4067 20 13.9542 14.3359 14.7627 15.2465 15.805 16.4656 17.2741 18.3164 19.7855 20 14.3592 14.7409 15.1676 15.6515 16.21 16.8706 17.6791 18.7214 20 14.7941 15.1759 15.6026 16.0864 16.645 17.3055 18.114 19.1564 20 15.264 15.6457 16.0724 16.5563 17.1148 17.7754 18.5838 19.6262 20 15.7747 16.1564 16.5832 17.067 17.6255 18.2861 19.0946 20 16.3341 16.7158 17.1426 17.6264 18.1849 18.8455 19.654 20 16.9525 17.3343 17.761 18.2448 18.8033 19.4639 20 17.6439 18.0256 18.4523 18.9362 19.4947 20 18.4276 18.8094 19.2361 19.7199 20 19.3324 19.7142 20 8.24478 8.62652 9.05327 9.53708 10.0956 10.7562 11.5647 12.607 14.0761 16.5875 20 8.40837 8.55522 8.70603 8.86103 9.02046 9.18458 9.35368 9.52806 9.70806 9.89407 10.0865 10.2858 10.4925 10.7071 10.9303 11.1628 11.4055 11.6591 11.9249 12.2039 12.4977 12.8077 13.1361 13.4849 13.857 14.2557 14.6852 15.9302 17.5354 19.7978 20 10.5988 10.9805 11.4072 11.8911 12.4496 13.1102 13.9186 14.961 16.4301 18.9415 20 10.8176 11.1993 11.6261 12.1099 12.6684 13.329 14.1375 15.1798 16.6489 19.1603 20 11.0454 11.4271 11.8539 12.3377 12.8962 13.5568 14.3653 15.4076 16.8767 19.3881 20 11.2828 11.6646 12.0913 12.5751 13.1337 13.7942 14.6027 15.6451 17.1141 19.6255 20 11.5309 11.9126 12.3394 12.8232 13.3817 14.0423 14.8508 15.8931 17.3622 19.8736 20 11.7904 12.1722 12.5989 13.0827 13.6413 14.3018 15.1103 16.1527 17.6217 20 12.0627 12.4444 12.8712 13.355 13.9135 14.5741 15.3826 16.4249 17.894 20 12.3489 12.7306 13.1574 13.6412 14.1997 14.8603 15.6688 16.7111 18.1802 20 12.6506 13.0323 13.459 13.9429 14.5014 15.162 15.9704 17.0128 18.4818 20 12.9695 13.3512 13.778 14.2618 14.8203 15.4809 16.2894 17.3317 18.8008 20 13.3077 13.6895 14.1162 14.6 15.1586 15.8192 16.6276 17.67 19.139 20 13.6679 14.0496 14.4763 14.9602 15.5187 16.1793 16.9877 18.0301 19.4992 20 14.0528 14.4346 14.8613 15.3451 15.9036 16.5642 17.3727 18.415 19.8841 20 14.4663 14.8481 15.2748 15.7586 16.3171 16.9777 17.7862 18.8285 20 14.9129 15.2947 15.7214 16.2052 16.7637 17.4243 18.2328 19.2752 20 15.3984 15.7802 16.2069 16.6907 17.2492 17.9098 18.7183 19.7606 20 15.9302 16.312 16.7387 17.2225 17.781 18.4416 19.2501 20 16.5181 16.8999 17.3266 17.8104 18.3689 19.0295 19.838 20 17.1753 17.557 17.9838 18.4676 19.0261 19.6867 20 17.9204 18.3021 18.7289 19.2127 19.7712 20 18.7805 19.1622 19.589 20 19.7978 20 8.6352 8.78215 8.9333 9.0889 9.24921 9.41453 9.58518 9.76153 9.94396 10.1329 10.3288 10.5323 10.7439 10.9644 11.1944 11.4349 11.6869 11.9514 12.2299 12.5238 12.8351 13.1658 13.5186 13.8966 14.3037 15.4841 17.0059 19.1508 20 10.853 11.2348 11.6615 12.1453 12.7038 13.3644 14.1729 15.2152 16.6843 19.1957 20 11.0782 11.4599 11.8866 12.3705 12.929 13.5896 14.398 15.4404 16.9095 19.4209 20 11.3133 11.695 12.1218 12.6056 13.1641 13.8247 14.6332 15.6755 17.1446 19.656 20 11.5594 11.9411 12.3679 12.8517 13.4102 14.0708 14.8793 15.9216 17.3907 19.9021 20 11.8175 12.1992 12.626 13.1098 13.6683 14.3289 15.1374 16.1797 17.6488 20 12.0888 12.4705 12.8973 13.3811 13.9396 14.6002 15.4087 16.451 17.9201 20 12.3748 12.7566 13.1833 13.6671 14.2256 14.8862 15.6947 16.737 18.2061 20 12.6772 13.0589 13.4857 13.9695 14.528 15.1886 15.9971 17.0394 18.5085 20 12.9979 13.3796 13.8064 14.2902 14.8487 15.5093 16.3178 17.3601 18.8292 20 13.3393 13.721 14.1478 14.6316 15.1901 15.8507 16.6592 17.7015 19.1706 20 13.7042 14.086 14.5127 14.9965 15.5551 16.2156 17.0241 18.0665 19.5355 20 14.0963 14.478 14.9047 15.3886 15.9471 16.6077 17.4161 18.4585 19.9276 20 14.5197 14.9014 15.3282 15.812 16.3705 17.0311 17.8396 18.8819 20 14.9799 15.3617 15.7884 16.2722 16.8308 17.4913 18.2998 19.3422 20 15.4841 15.8659 16.2926 16.7764 17.3349 17.9955 18.804 19.8463 20 16.0415 16.4232 16.85 17.3338 17.8923 18.5529 19.3614 20 16.6645 17.0463 17.473 17.9568 18.5153 19.1759 19.9844 20 17.3709 17.7526 18.1794 18.6632 19.2217 19.8823 20 18.1863 18.5681 18.9948 19.4786 20 19.1508 19.5325 19.9593 20 8.89793 9.04488 9.19603 9.35162 9.51193 9.67726 9.84791 10.0243 10.2067 10.3956 10.5916 10.7951 11.0067 11.2271 11.4571 11.6976 11.9496 12.2141 12.4926 12.7866 13.0978 13.4285 13.7813 14.1593 14.5665 15.7468 17.2686 19.4135 20 11.1157 11.4975 11.9242 12.408 12.9666 13.6271 14.4356 15.478 16.947 19.4584 20 11.3409 11.7226 12.1494 12.6332 13.1917 13.8523 14.6608 15.7031 17.1722 19.6836 20 11.576 11.9578 12.3845 12.8683 13.4268 14.0874 14.8959 15.9382 17.4073 19.9187 20 11.8221 12.2038 12.6306 13.1144 13.6729 14.3335 15.142 16.1843 17.6534 20 12.0802 12.4619 12.8887 13.3725 13.931 14.5916 15.4001 16.4424 17.9115 20 12.3515 12.7333 13.16 13.6438 14.2024 14.8629 15.6714 16.7138 18.1828 20 12.6375 13.0193 13.446 13.9298 14.4884 15.1489 15.9574 16.9998 18.4688 20 12.9399 13.3216 13.7484 14.2322 14.7907 15.4513 16.2598 17.3021 18.7712 20 13.2606 13.6423 14.0691 14.5529 15.1114 15.772 16.5805 17.6228 19.0919 20 13.602 13.9837 14.4105 14.8943 15.4528 16.1134 16.9219 17.9642 19.4333 20 13.967 14.3487 14.7755 15.2593 15.8178 16.4784 17.2869 18.3292 19.7983 20 14.359 14.7407 15.1675 15.6513 16.2098 16.8704 17.6789 18.7212 20 14.7824 15.1641 15.5909 16.0747 16.6332 17.2938 18.1023 19.1446 20 15.2427 15.6244 16.0512 16.535 17.0935 17.7541 18.5626 19.6049 20 15.7468 16.1286 16.5553 17.0391 17.5977 18.2583 19.0667 20 16.3042 16.6859 17.1127 17.5965 18.155 18.8156 19.6241 20 16.9272 17.309 17.7357 18.2195 18.7781 19.4386 20 17.6336 18.0153 18.4421 18.9259 19.4844 20 18.449 18.8308 19.2575 19.7413 20 19.4135 19.7952 20 8.89793 9.04488 9.19603 9.35162 9.51194 9.67726 9.84791 10.0243 10.2067 10.3956 10.5916 10.7951 11.0067 11.2271 11.4571 11.6976 11.9496 12.2141 12.4926 12.7866 13.0978 13.4285 13.7813 14.1593 14.5665 15.7468 17.2686 19.4135 20 11.1157 11.4975 11.9242 12.408 12.9666 13.6271 14.4356 15.478 16.947 19.4584 20 11.3409 11.7226 12.1494 12.6332 13.1917 13.8523 14.6608 15.7031 17.1722 19.6836 20 11.576 11.9578 12.3845 12.8683 13.4268 14.0874 14.8959 15.9382 17.4073 19.9187 20 11.8221 12.2038 12.6306 13.1144 13.6729 14.3335 15.142 16.1843 17.6534 20 12.0802 12.4619 12.8887 13.3725 13.931 14.5916 15.4001 16.4424 17.9115 20 12.3515 12.7333 13.16 13.6438 14.2024 14.8629 15.6714 16.7138 18.1828 20 12.6375 13.0193 13.446 13.9298 14.4884 15.1489 15.9574 16.9998 18.4688 20 12.9399 13.3216 13.7484 14.2322 14.7907 15.4513 16.2598 17.3021 18.7712 20 13.2606 13.6423 14.0691 14.5529 15.1114 15.772 16.5805 17.6228 19.0919 20 13.602 13.9837 14.4105 14.8943 15.4528 16.1134 16.9219 17.9642 19.4333 20 13.967 14.3487 14.7755 15.2593 15.8178 16.4784 17.2869 18.3292 19.7983 20 14.359 14.7407 15.1675 15.6513 16.2098 16.8704 17.6789 18.7212 20 14.7824 15.1641 15.5909 16.0747 16.6332 17.2938 18.1023 19.1446 20 15.2427 15.6244 16.0512 16.535 17.0935 17.7541 18.5626 19.6049 20 15.7468 16.1286 16.5553 17.0392 17.5977 18.2583 19.0667 20 16.3042 16.6859 17.1127 17.5965 18.155 18.8156 19.6241 20 16.9272 17.309 17.7357 18.2195 18.7781 19.4386 20 17.6336 18.0153 18.4421 18.9259 19.4844 20 18.449 18.8308 19.2575 19.7413 20 19.4135 19.7952 20 9.00803 9.38977 9.81652 10.3003 10.8588 11.5194 12.3279 13.3703 14.8393 17.3507 20 9.00803 9.38977 9.81652 10.3003 10.8588 11.5194 12.3279 13.3703 14.8393 17.3507 20 9.29503 9.67677 10.1035 10.5873 11.1458 11.8064 12.6149 13.6572 15.1263 17.6377 20 9.42669 9.57354 9.72435 9.87935 10.0388 10.2029 10.372 10.5464 10.7264 10.9124 11.1048 11.3041 11.5108 11.7254 11.9486 12.1812 12.4238 12.6775 12.9432 13.2223 13.516 13.8261 14.1544 14.5032 14.8753 15.2741 15.7035 16.9486 18.5537 20 11.6171 11.9988 12.4256 12.9094 13.4679 14.1285 14.937 15.9793 17.4484 19.9598 20 11.8359 12.2177 12.6444 13.1282 13.6867 14.3473 15.1558 16.1981 17.6672 20 12.0637 12.4454 12.8722 13.356 13.9145 14.5751 15.3836 16.4259 17.895 20 12.3012 12.6829 13.1097 13.5935 14.152 14.8126 15.6211 16.6634 18.1325 20 12.5492 12.9309 13.3577 13.8415 14.4 15.0606 15.8691 16.9114 18.3805 20 12.8088 13.1905 13.6172 14.1011 14.6596 15.3202 16.1287 17.171 18.6401 20 13.081 13.4627 13.8895 14.3733 14.9318 15.5924 16.4009 17.4432 18.9123 20 13.3672 13.7489 14.1757 14.6595 15.218 15.8786 16.6871 17.7294 19.1985 20 13.6689 14.0506 14.4774 14.9612 15.5197 16.1803 16.9888 18.0311 19.5002 20 13.9878 14.3695 14.7963 15.2801 15.8386 16.4992 17.3077 18.35 19.8191 20 14.3261 14.7078 15.1346 15.6184 16.1769 16.8375 17.646 18.6883 20 14.6862 15.0679 15.4947 15.9785 16.537 17.1976 18.0061 19.0484 20 15.0711 15.4529 15.8796 16.3634 16.922 17.5825 18.391 19.4334 20 15.4846 15.8664 16.2931 16.7769 17.3355 17.996 18.8045 19.8469 20 15.9313 16.313 16.7397 17.2236 17.7821 18.4427 19.2511 20 16.4167 16.7985 17.2252 17.709 18.2676 18.9282 19.7366 20 16.9486 17.3303 17.757 18.2409 18.7994 19.46 20 17.5364 17.9182 18.3449 18.8287 19.3873 20 18.1936 18.5754 19.0021 19.4859 20 18.9387 19.3204 19.7472 20 19.7988 20 9.70725 10.089 10.5157 10.9996 11.5581 12.2187 13.0271 14.0695 15.5385 18.05 20 9.89255 10.0393 10.19 10.3447 10.5038 10.6673 10.8357 11.0092 11.1881 11.3728 11.5636 11.7611 11.9655 12.1776 12.3978 12.6268 12.8654 13.1143 13.3746 13.6472 13.9335 14.2349 14.553 14.8898 15.2477 15.6295 16.0386 16.4792 17.7566 19.4035 20 12.0706 12.4523 12.8791 13.3629 13.9214 14.582 15.3905 16.4328 17.9019 20 12.2866 12.6684 13.0951 13.5789 14.1374 14.798 15.6065 16.6488 18.1179 20 12.5111 12.8929 13.3196 13.8034 14.362 15.0225 15.831 16.8734 18.3424 20 12.7448 13.1266 13.5533 14.0371 14.5957 15.2562 16.0647 17.1071 18.5761 20 12.9885 13.3702 13.797 14.2808 14.8393 15.4999 16.3084 17.3507 18.8198 20 13.2429 13.6247 14.0514 14.5352 15.0938 15.7543 16.5628 17.6052 19.0742 20 13.5093 13.891 14.3177 14.8016 15.3601 16.0207 16.8292 17.8715 19.3406 20 13.7886 14.1703 14.5971 15.0809 15.6394 16.3 17.1085 18.1508 19.6199 20 14.0822 14.4639 14.8907 15.3745 15.933 16.5936 17.4021 18.4444 19.9135 20 14.3917 14.7735 15.2002 15.684 16.2425 16.9031 17.7116 18.7539 20 14.7189 15.1007 15.5274 16.0112 16.5697 17.2303 18.0388 19.0811 20 15.066 15.4477 15.8745 16.3583 16.9168 17.5774 18.3859 19.4282 20 15.4354 15.8172 16.2439 16.7277 17.2863 17.9468 18.7553 19.7977 20 15.8304 16.2121 16.6389 17.1227