<?xml version="1.0"?><VTKFile type="PolyData" version="0.1" byte_order="LittleEndian">
<PolyData>
<Piece NumberOfLines="694" NumberOfPoints="7366">
<PointData Scalars=" PointData">
<DataArray type="Float32" Name="time" NumberOfComponents="1" format="ascii" >
0 0.364104 0.613362 0.695872 0.876113 1.11896 1.15269 1.45696 1.49057 1.63787 1.78381 1.98077 2.09521 2.41808 2.42524 2.63386 2.85438 3.0806 3.28999 3.45264 3.61675 3.86321 3.95586 4.06623 4.15525 4.43216 4.60897 4.79767 5.02824 5.10127 5.5195 5.53379 5.63019 5.83039 5.96474 6.01531 6.24092 6.5157 6.85174 7.20251 7.55655 7.69532 7.86932 8.14147 8.18469 8.31931 8.67765 9.04659 9.16541 9.20246 9.32445 9.57333 10.0012 10.1348 10.351 10.6653 10.9159 11.1028 11.1607 11.309 11.4931 11.7998 11.8654 12.034 12.0697 12.2015 12.5118 12.9112 13.039 13.3445 13.6207 13.7699 14.079 14.3895 14.8168 15.0628 15.3493 15.5246 15.5516 15.7371 16.0488 16.3838 16.49 16.6702 16.8829 17.2597 17.4329 17.6581 17.908 18.21 18.55 18.6143 18.8589 19.2014 19.6078 19.8107 20.2362 20.3056 20.72 20.9908 21.3111 21.3506 21.6011 21.8789 21.9323 22.2709 22.7978 23.2749 23.3752 23.6547 24.0625 24.3151 24.6285 24.8367 25.2602 25.7079 26.1537 26.3555 26.7463 27.1445 27.4853 27.719 27.7548 28.1781 28.3303 28.6708 29.1886 29.3203 29.6435 29.7951 30 4.21691 4.36398 4.5155 4.67176 4.83307 4.99975 5.17218 5.35077 5.53598 5.72831 5.92834 6.1367 6.35413 6.58144 6.81958 7.06963 7.33285 7.6107 7.9049 8.2175 8.55096 8.90825 9.29306 10.4088 11.8472 13.8745 17.3402 30 6.46649 6.84823 7.27498 7.75879 8.31731 8.97789 9.78638 10.8287 12.2978 14.8092 30 6.69909 7.08083 7.50758 7.99139 8.54991 9.21049 10.019 11.0613 12.5304 15.0418 30 6.94304 7.32478 7.75153 8.23534 8.79386 9.45444 10.2629 11.3053 12.7743 15.2857 30 7.19951 7.58125 8.008 8.49181 9.05033 9.71091 10.5194 11.5617 13.0308 15.5422 30 7.46984 7.85158 8.27833 8.76214 9.32066 9.98125 10.7897 11.8321 13.3011 15.8125 30 7.75564 8.13738 8.56413 9.04794 9.60645 10.267 11.0755 12.1179 13.5869 16.0983 30 8.05876 8.4405 8.86725 9.35106 9.90958 10.5702 11.3787 12.421 13.8901 16.4015 30 8.38145 8.76319 9.18994 9.67375 10.2323 10.8929 11.7013 12.7437 14.2127 16.7242 30 8.72642 9.10816 9.53491 10.0187 10.5772 11.2378 12.0463 13.0886 14.5577 17.0691 30 9.09696 9.4787 9.90545 10.3893 10.9478 11.6084 12.4168 13.4592 14.9283 17.4397 30 9.49717 9.87891 10.3057 10.7895 11.348 12.0086 12.8171 13.8594 15.3285 17.8399 30 9.93223 10.314 10.7407 11.2245 11.783 12.4436 13.2521 14.2944 15.7635 18.2749 30 10.4088 10.7905 11.2173 11.7011 12.2596 12.9202 13.7287 14.771 16.2401 18.7515 30 10.9356 11.3173 11.7441 12.2279 12.7864 13.447 14.2555 15.2978 16.7669 19.2783 30 11.5245 11.9062 12.333 12.8168 13.3753 14.0359 14.8444 15.8867 17.3558 19.8672 30 12.1922 12.5739 13.0006 13.4845 14.043 14.7036 15.512 16.5544 18.0234 20.5349 30 12.9629 13.3446 13.7714 14.2552 14.8137 15.4743 16.2828 17.3251 18.7942 21.3056 30 13.8745 14.2563 14.683 15.1668 15.7253 16.3859 17.1944 18.2367 19.7058 22.2172 30 14.9902 15.372 15.7987 16.2825 16.841 17.5016 18.3101 19.3525 20.8215 23.3329 30 16.4286 16.8104 17.2371 17.7209 18.2795 18.94 19.7485 20.7909 22.2599 24.7713 30 18.456 18.8377 19.2645 19.7483 20.3068 20.9674 21.7759 22.8182 24.2873 26.7987 30 21.9217 22.3034 22.7302 23.214 23.7725 24.4331 25.2416 26.2839 27.753 30 4.49362 4.64041 4.79107 4.9458 5.10483 5.2684 5.43678 5.61027 5.78918 5.97386 6.1647 6.36212 6.56659 6.77864 6.99885 7.22786 7.46642 7.71536 7.97562 8.24827 8.53456 8.83593 9.15404 9.49088 9.84879 10.2306 10.6397 11.0802 12.3576 14 16.3189 20.2801 30 6.67164 7.05338 7.48013 7.96394 8.52245 9.18304 9.99153 11.0339 12.5029 15.0143 30 6.88768 7.26943 7.69618 8.17999 8.7385 9.39909 10.2076 11.2499 12.719 15.2304 30 7.11221 7.49395 7.9207 8.40451 8.96303 9.62361 10.4321 11.4744 12.9435 15.4549 30 7.3459 7.72764 8.15439 8.6382 9.19672 9.8573 10.6658 11.7081 13.1772 15.6886 30 7.58954 7.97128 8.39803 8.88184 9.44036 10.1009 10.9094 11.9518 13.4208 15.9322 30 7.84401 8.22575 8.6525 9.13631 9.69483 10.3554 11.1639 12.2062 13.6753 16.1867 30 8.11032 8.49206 8.91881 9.40262 9.96114 10.6217 11.4302 12.4725 13.9416 16.453 30 8.38963 8.77137 9.19812 9.68193 10.2404 10.901 11.7095 12.7518 14.2209 16.7323 30 8.68326 9.065 9.49175 9.97556 10.5341 11.1947 12.0032 13.0455 14.5146 17.026 30 8.99278 9.37452 9.80127 10.2851 10.8436 11.5042 12.3127 13.355 14.8241 17.3355 30 9.31999 9.70173 10.1285 10.6123 11.1708 11.8314 12.6399 13.6822 15.1513 17.6627 30 9.66704 10.0488 10.4755 10.9593 11.5179 12.1784 12.9869 14.0293 15.4983 18.0097 30 10.0365 10.4182 10.845 11.3288 11.8873 12.5479 13.3564 14.3987 15.8678 18.3792 30 10.4315 10.8132 11.24 11.7238 12.2823 12.9429 13.7514 14.7937 16.2628 18.7742 30 10.8557 11.2374 11.6642 12.148 12.7065 13.3671 14.1756 15.2179 16.687 19.1984 30 11.3139 11.6957 12.1224 12.6062 13.1647 13.8253 14.6338 15.6761 17.1452 19.6566 30 11.812 12.1938 12.6205 13.1043 13.6628 14.3234 15.1319 16.1742 17.6433 20.1547 30 12.3576 12.7394 13.1661 13.6499 14.2085 14.869 15.6775 16.7199 18.1889 20.7003 30 12.9608 13.3425 13.7693 14.2531 14.8116 15.4722 16.2807 17.323 18.7921 21.3035 30 13.6351 14.0168 14.4435 14.9274 15.4859 16.1465 16.955 17.9973 19.4664 21.9778 30 14.3995 14.7812 15.208 15.6918 16.2503 16.9109 17.7194 18.7617 20.2308 22.7422 30 15.2819 15.6637 16.0904 16.5742 17.1328 17.7933 18.6018 19.6442 21.1132 23.6246 30 16.3257 16.7074 17.1341 17.618 18.1765 18.8371 19.6456 20.6879 22.157 24.6684 30 17.6031 17.9848 18.4116 18.8954 19.4539 20.1145 20.923 21.9653 23.4344 25.9458 30 19.25 19.6317 20.0584 20.5423 21.1008 21.7614 22.5698 23.6122 25.0812 27.5926 30 21.5711 21.9528 22.3796 22.8634 23.4219 24.0825 24.891 25.9333 27.4024 29.9138 30 25.5391 25.9208 26.3476 26.8314 27.3899 28.0505 28.859 29.9013 30 4.58526 4.73221 4.88336 5.03895 5.19927 5.36459 5.53524 5.71159 5.89401 6.08296 6.2789 6.48238 6.694 6.91445 7.14448 7.38497 7.63691 7.90146 8.17994 8.47389 8.78515 9.11587 9.46866 9.84667 10.2538 11.4342 12.956 15.1008 18.7675 30 6.80308 7.18482 7.61157 8.09538 8.65389 9.31448 10.123 11.1653 12.6344 15.1458 30 7.02821 7.40995 7.8367 8.32051 8.87903 9.53961 10.3481 11.3904 12.8595 15.3709 30 7.26335 7.6451 8.07185 8.55566 9.11417 9.77476 10.5832 11.6256 13.0947 15.6061 30 7.50944 7.89118 8.31793 8.80174 9.36026 10.0208 10.8293 11.8717 13.3407 15.8521 30 7.76753 8.14927 8.57602 9.05983 9.61835 10.2789 11.0874 12.1298 13.5988 16.1102 30 8.03887 8.42061 8.84736 9.33117 9.88968 10.5503 11.3588 12.4011 13.8702 16.3816 30 8.32487 8.70661 9.13336 9.61717 10.1757 10.8363 11.6448 12.6871 14.1562 16.6676 30 8.62723 9.00897 9.43572 9.91953 10.4781 11.1386 11.9471 12.9895 14.4585 16.9699 30 8.94793 9.32967 9.75642 10.2402 10.7987 11.4593 12.2678 13.3101 14.7792 17.2906 30 9.28933 9.67107 10.0978 10.5816 11.1401 11.8007 12.6092 13.6515 15.1206 17.632 30 9.65429 10.036 10.4628 10.9466 11.5051 12.1657 12.9742 14.0165 15.4856 17.997 30 10.0463 10.4281 10.8548 11.3386 11.8971 12.5577 13.3662 14.4085 15.8776 18.389 30 10.4697 10.8515 11.2782 11.762 12.3205 12.9811 13.7896 14.8319 16.301 18.8124 30 10.93 11.3117 11.7385 12.2223 12.7808 13.4414 14.2499 15.2922 16.7613 19.2727 30 11.4342 11.8159 12.2427 12.7265 13.285 13.9456 14.7541 15.7964 17.2655 19.7769 30 11.9915 12.3733 12.8 13.2838 13.8423 14.5029 15.3114 16.3537 17.8228 20.3342 30 12.6146 12.9963 13.4231 13.9069 14.4654 15.126 15.9345 16.9768 18.4459 20.9573 30 13.3209 13.7027 14.1294 14.6132 15.1718 15.8323 16.6408 17.6832 19.1522 21.6636 30 14.1364 14.5181 14.9449 15.4287 15.9872 16.6478 17.4563 18.4986 19.9677 22.4791 30 15.1008 15.4826 15.9093 16.3931 16.9516 17.6122 18.4207 19.463 20.9321 23.4435 30 16.2812 16.663 17.0897 17.5735 18.132 18.7926 19.6011 20.6434 22.1125 24.6239 30 17.803 18.1848 18.6115 19.0953 19.6538 20.3144 21.1229 22.1652 23.6343 26.1457 30 19.9479 20.3296 20.7564 21.2402 21.7987 22.4593 23.2678 24.3101 25.7792 28.2906 30 23.6145 23.9963 24.423 24.9068 25.4653 26.1259 26.9344 27.9767 29.4458 30 4.78553 5.16727 5.59402 6.07783 6.63635 7.29693 8.10543 9.14775 10.6168 13.1282 30 5.05554 5.43728 5.86403 6.34784 6.90635 7.56694 8.37543 9.41776 10.8868 13.3982 30 5.09306 5.4748 5.90155 6.38536 6.94388 7.60446 8.41295 9.45528 10.9244 13.4358 30 5.43167 5.81341 6.24016 6.72397 7.28249 7.94307 8.75156 9.79389 11.263 13.7744 30 5.4691 5.85084 6.27759 6.7614 7.31991 7.9805 8.78899 9.83132 11.3004 13.8118 30 5.63315 6.01489 6.44164 6.92545 7.48397 8.14456 8.95305 9.99537 11.4644 13.9759 30 5.79576 6.1775 6.60425 7.08806 7.64658 8.30716 9.11565 10.158 11.6271 14.1385 30 6.01535 6.39709 6.82384 7.30765 7.86617 8.52675 9.33524 10.3776 11.8466 14.3581 30 6.14299 6.52473 6.95148 7.43529 7.99381 8.65439 9.46288 10.5052 11.9743 14.4857 30 6.50337 6.65003 6.80026 6.95426 7.1122 7.2743 7.44078 7.61189 7.78788 7.96905 8.15572 8.34821 8.54692 8.75226 8.96467 9.18467 9.41283 9.64976 9.89617 10.1528 10.4207 10.7007 10.9941 11.3021 11.6264 11.9686 12.3311 12.7162 13.1269 13.5671 14 14.0411 15.4155 17.1875 19.6849 23.9543 30 8.64873 9.03047 9.45722 9.94103 10.4996 11.1601 11.9686 13.011 14.48 16.9914 30 8.85755 9.23929 9.66604 10.1498 10.7084 11.3689 12.1774 13.2198 14.6888 17.2002 30 9.07369 9.45543 9.88218 10.366 10.9245 11.5851 12.3936 13.4359 14.905 17.4164 30 9.29769 9.67943 10.1062 10.59 11.1485 11.8091 12.6176 13.6599 15.129 17.6404 30 9.53015 9.91189 10.3386 10.8225 11.381 12.0416 12.85 13.8924 15.3614 17.8729 30 9.77173 10.1535 10.5802 11.064 11.6225 12.2831 13.0916 14.1339 15.603 18.1144 30 10.0232 10.4049 10.8317 11.3155 11.874 12.5346 13.3431 14.3854 15.8545 18.3659 30 10.2853 10.6671 11.0938 11.5776 12.1361 12.7967 13.6052 14.6475 16.1166 18.628 30 10.5591 10.9408 11.3676 11.8514 12.4099 13.0705 13.879 14.9213 16.3904 18.9018 30 10.8456 11.2274 11.6541 12.1379 12.6965 13.357 14.1655 15.2079 16.6769 19.1883 30 11.1462 11.5279 11.9547 12.4385 12.997 13.6576 14.4661 15.5084 16.9775 19.4889 30 11.4621 11.8438 12.2706 12.7544 13.3129 13.9735 14.782 15.8243 17.2934 19.8048 30 11.7951 12.1769 12.6036 13.0874 13.6459 14.3065 15.115 16.1573 17.6264 20.1378 30 12.1472 12.5289 12.9557 13.4395 13.998 14.6586 15.4671 16.5094 17.9785 20.4899 30 12.5206 12.9023 13.3291 13.8129 14.3714 15.032 15.8405 16.8828 18.3519 20.8633 30 12.9181 13.2999 13.7266 14.2104 14.7689 15.4295 16.238 17.2803 18.7494 21.2608 30 13.3431 13.7248 14.1516 14.6354 15.1939 15.8545 16.663 17.7053 19.1744 21.6858 30 13.7995 14.1813 14.608 15.0918 15.6504 16.3109 17.1194 18.1618 19.6308 22.1422 30 14.2926 14.6743 15.101 15.5849 16.1434 16.804 17.6124 18.6548 20.1238 22.6353 30 14.8285 15.2102 15.637 16.1208 16.6793 17.3399 18.1484 19.1907 20.6598 23.1712 30 15.4155 15.7973 16.224 16.7078 17.2664 17.927 18.7354 19.7778 21.2468 23.7582 30 16.0645 16.4462 16.873 17.3568 17.9153 18.5759 19.3844 20.4267 21.8958 24.4072 30 16.79 17.1717 17.5985 18.0823 18.6408 19.3014 20.1099 21.1522 22.6213 25.1327 30 17.6125 17.9942 18.4209 18.9048 19.4633 20.1239 20.9324 21.9747 23.4438 25.9552 30 18.5619 18.9437 19.3704 19.8542 20.4128 21.0733 21.8818 22.9242 24.3932 26.9046 30 19.6849 20.0667 20.4934 20.9772 21.5358 22.1963 23.0048 24.0472 25.5162 28.0276 30 21.0594 21.4411 21.8679 22.3517 22.9102 23.5708 24.3793 25.4216 26.8907 29.4021 30 22.8313 23.2131 23.6398 24.1236 24.6821 25.3427 26.1512 27.1935 28.6626 30 25.3288 25.7105 26.1372 26.6211 27.1796 27.8402 28.6486 29.691 30 29.5981 29.9799 30 6.51137 6.89311 7.31986 7.80367 8.36218 9.02277 9.83126 10.8736 12.3427 14.8541 30 6.74441 7.12615 7.5529 8.03671 8.59523 9.25581 10.0643 11.1066 12.5757 15.0871 30 6.99093 7.37267 7.79942 8.28323 8.84175 9.50233 10.3108 11.3531 12.8222 15.3336 30 7.244 7.62574 8.05249 8.5363 9.09482 9.7554 10.5639 11.6062 13.0753 15.5867 30 7.47841 7.86015 8.2869 8.77071 9.32922 9.98981 10.7983 11.8406 13.3097 15.8211 30 7.6606 8.04234 8.46909 8.9529 9.51141 10.172 10.9805 12.0228 13.4919 16.0033 30 7.84451 8.22625 8.653 9.13681 9.69533 10.3559 11.1644 12.2067 13.6758 16.1872 30 8.12091 8.50265 8.9294 9.41321 9.97173 10.6323 11.4408 12.4831 13.9522 16.4636 30 8.22488 8.60662 9.03337 9.51718 10.0757 10.7363 11.5448 12.5871 14.0562 16.5676 30 8.34876 8.49577 8.6471 8.80302 8.96382 9.1298 9.30131 9.47874 9.6625 9.85308 10.051 10.2568 10.4712 10.6949 10.9288 11.1739 11.4312 11.702 11.9879 12.2907 12.6123 12.9555 13.3231 13.7191 14.8671 16.3472 18.4333 21.9995 30 10.5819 10.9636 11.3904 11.8742 12.4327 13.0933 13.9018 14.9441 16.4132 18.9246 30 10.8106 11.1923 11.6191 12.1029 12.6614 13.322 14.1305 15.1728 16.6419 19.1533 30 11.0499 11.4316 11.8584 12.3422 12.9007 13.5613 14.3698 15.4121 16.8812 19.3926 30 11.3009 11.6827 12.1094 12.5932 13.1517 13.8123 14.6208 15.6631 17.1322 19.6436 30 11.5648 11.9466 12.3733 12.8571 13.4156 14.0762 14.8847 15.927 17.3961 19.9075 30 11.843 12.2247 12.6515 13.1353 13.6938 14.3544 15.1629 16.2052 17.6743 20.1857 30 12.1371 12.5188 12.9456 13.4294 13.9879 14.6485 15.457 16.4993 17.9684 20.4798 30 12.449 12.8307 13.2575 13.7413 14.2998 14.9604 15.7689 16.8112 18.2803 20.7917 30 12.781 13.1628 13.5895 14.0733 14.6318 15.2924 16.1009 17.1432 18.6123 21.1237 30 13.136 13.5177 13.9445 14.4283 14.9868 15.6474 16.4559 17.4982 18.9673 21.4787 30 13.5173 13.899 14.3258 14.8096 15.3681 16.0287 16.8372 17.8795 19.3486 21.86 30 13.9291 14.3108 14.7376 15.2214 15.7799 16.4405 17.249 18.2913 19.7604 22.2718 30 14.3768 14.7585 15.1852 15.6691 16.2276 16.8882 17.6966 18.739 20.2081 22.7195 30 14.8671 15.2489 15.6756 16.1594 16.7179 17.3785 18.187 19.2293 20.6984 23.2098 30 15.4092 15.7909 16.2177 16.7015 17.26 17.9206 18.7291 19.7714 21.2405 23.7519 30 16.0152 16.3969 16.8237 17.3075 17.866 18.5266 19.3351 20.3774 21.8465 24.3579 30 16.7022 17.0839 17.5107 17.9945 18.553 19.2136 20.0221 21.0644 22.5335 25.0449 30 17.4953 17.877 18.3038 18.7876 19.3461 20.0067 20.8152 21.8575 23.3266 25.838 30 18.4333 18.8151 19.2418 19.7256 20.2841 20.9447 21.7532 22.7955 24.2646 26.776 30 19.5814 19.9631 20.3899 20.8737 21.4322 22.0928 22.9013 23.9436 25.4127 27.9241 30 21.0615 21.4432 21.87 22.3538 22.9123 23.5729 24.3814 25.4237 26.8928 29.4042 30 23.1476 23.5293 23.9561 24.4399 24.9984 25.659 26.4675 27.5098 28.9789 30 26.7138 27.0955 27.5222 28.0061 28.5646 29.2252 30 8.34876 8.49547 8.64584 8.80006 8.95835 9.12091 9.28799 9.45985 9.63676 9.81903 10.007 10.201 10.4015 10.6089 10.8238 11.0466 11.2779 11.5185 11.7692 12.0307 12.3041 12.5906 12.8914 13.208 13.5422 13.8961 14.2722 14.6733 15.1031 15.5659 16.908 18.6383 21.077 25.2459 30 10.5043 10.8861 11.3128 11.7966 12.3552 13.0157 13.8242 14.8666 16.3356 18.847 30 10.7154 11.0971 11.5239 12.0077 12.5662 13.2268 14.0353 15.0776 16.5467 19.0581 30 10.9341 11.3159 11.7426 12.2264 12.785 13.4455 14.254 15.2964 16.7654 19.2768 30 11.1611 11.5429 11.9696 12.4534 13.0119 13.6725 14.481 15.5233 16.9924 19.5038 30 11.397 11.7788 12.2055 12.6893 13.2478 13.9084 14.7169 15.7592 17.2283 19.7397 30 11.6425 12.0243 12.451 12.9348 13.4934 14.1539 14.9624 16.0048 17.4738 19.9852 30 11.8985 12.2803 12.707 13.1908 13.7493 14.4099 15.2184 16.2607 17.7298 20.2412 30 12.1659 12.5476 12.9744 13.4582 14.0167 14.6773 15.4858 16.5281 17.9972 20.5086 30 12.4457 12.8274 13.2542 13.738 14.2965 14.9571 15.7656 16.8079 18.277 20.7884 30 12.7391 13.1209 13.5476 14.0314 14.5899 15.2505 16.059 17.1013 18.5704 21.0818 30 13.0476 13.4294 13.8561 14.3399 14.8984 15.559 16.3675 17.4098 18.8789 21.3903 30 13.3728 13.7545 14.1813 14.6651 15.2236 15.8842 16.6927 17.735 19.2041 21.7155 30 13.7166 14.0983 14.5251 15.0089 15.5674 16.228 17.0365 18.0788 19.5479 22.0593 30 14.0812 14.4629 14.8897 15.3735 15.932 16.5926 17.4011 18.4434 19.9125 22.4239 30 14.4694 14.8511 15.2779 15.7617 16.3202 16.9808 17.7893 18.8316 20.3007 22.8121 30 14.8843 15.2661 15.6928 16.1766 16.7351 17.3957 18.2042 19.2466 20.7156 23.227 30 15.3301 15.7118 16.1385 16.6224 17.1809 17.8415 18.6499 19.6923 21.1613 23.6728 30 15.8115 16.1932 16.62 17.1038 17.6623 18.3229 19.1314 20.1737 21.6428 24.1542 30 16.3348 16.7165 17.1433 17.6271 18.1856 18.8462 19.6547 20.697 22.1661 24.6775 30 16.908 17.2898 17.7165 18.2003 18.7589 19.4194 20.2279 21.2703 22.7393 25.2507 30 17.5417 17.9235 18.3502 18.834 19.3925 20.0531 20.8616 21.904 23.373 25.8844 30 18.2501 18.6319 19.0586 19.5424 20.101 20.7615 21.57 22.6124 24.0814 26.5928 30 19.0533 19.435 19.8617 20.3456 20.9041 21.5647 22.3732 23.4155 24.8846 27.396 30 19.9804 20.3621 20.7889 21.2727 21.8312 22.4918 23.3003 24.3426 25.8117 28.3231 30 21.077 21.4587 21.8855 22.3693 22.9278 23.5884 24.3969 25.4392 26.9083 29.4197 30 22.4191 22.8008 23.2276 23.7114 24.2699 24.9305 25.739 26.7813 28.2504 30 24.1493 24.5311 24.9578 25.4416 26.0001 26.6607 27.4692 28.5115 29.9806 30 26.588 26.9697 27.3965 27.8803 28.4388 29.0994 29.9079 30 8.44873 8.59593 8.74788 8.9049 9.06734 9.23558 9.41005 9.59123 9.77966 9.97594 10.1808 10.3949 10.6192 10.8548 11.1027 11.3645 11.6416 11.9361 12.2502 12.5868 12.9493 14 15.3549 17.2645 20.5286 30 10.7355 11.1173 11.544 12.0278 12.5864 13.2469 14.0554 15.0978 16.5668 19.0782 30 10.9771 11.3589 11.7856 12.2694 12.828 13.4885 14.297 15.3394 16.8084 19.3198 30 11.2318 11.6135 12.0403 12.5241 13.0826 13.7432 14.5517 15.594 17.0631 19.5745 30 11.501 11.8828 12.3095 12.7933 13.3518 14.0124 14.8209 15.8632 17.3323 19.8437 30 11.7866 12.1683 12.5951 13.0789 13.6374 14.298 15.1065 16.1488 17.6179 20.1293 30 12.0906 12.4723 12.8991 13.3829 13.9414 14.602 15.4105 16.4528 17.9219 20.4333 30 12.4155 12.7973 13.224 13.7078 14.2663 14.9269 15.7354 16.7777 18.2468 20.7582 30 12.7646 13.1463 13.5731 14.0569 14.6154 15.276 16.0845 17.1268 18.5959 21.1073 30 13.1416 13.5233 13.9501 14.4339 14.9924 15.653 16.4615 17.5038 18.9729 21.4843 30 13.5514 13.9332 14.3599 14.8437 15.4023 16.0628 16.8713 17.9137 19.3827 21.8941 30 14.0004 14.3821 14.8089 15.2927 15.8512 16.5118 17.3203 18.3626 19.8317 22.3431 30 14.4966 14.8784 15.3051 15.7889 16.3474 17.008 17.8165 18.8588 20.3279 22.8393 30 15.0514 15.4331 15.8599 16.3437 16.9022 17.5628 18.3713 19.4136 20.8827 23.3941 30 15.6804 16.0621 16.4888 16.9727 17.5312 18.1918 19.0002 20.0426 21.5116 24.0231 30 16.4064 16.7882 17.2149 17.6987 18.2572 18.9178 19.7263 20.7686 22.2377 24.7491 30 17.2652 17.6469 18.0737 18.5575 19.116 19.7766 20.5851 21.6274 23.0965 25.6079 30 18.3162 18.698 19.1247 19.6085 20.167 20.8276 21.6361 22.6784 24.1475 26.6589 30 19.6712 20.053 20.4797 20.9635 21.5221 22.1827 22.9911 24.0335 25.5025 28.0139 30 21.581 21.9628 22.3895 22.8733 23.4319 24.0925 24.9009 25.9433 27.4123 29.9237 30 24.8459 25.2276 25.6544 26.1382 26.6967 27.3573 28.1658 29.2081 30 8.75984 8.90659 9.0571 9.21157 9.37022 9.53327 9.70098 9.87363 10.0515 10.2349 10.4243 10.62 10.8224 11.032 11.2495 11.4752 11.7101 11.9547 12.2099 12.4767 12.7563 13.0498 13.3588 13.685 14.0304 14.3973 14.7888 15.2082 15.6599 16.9697 18.6583 21.0382 25.1066 30 10.9263 11.308 11.7348 12.2186 12.7771 13.4377 14.2462 15.2885 16.7576 19.269 30 11.1397 11.5215 11.9482 12.432 12.9906 13.6511 14.4596 15.502 16.971 19.4824 30 11.3613 11.743 12.1698 12.6536 13.2121 13.8727 14.6812 15.7235 17.1926 19.704 30 11.5915 11.9732 12.4 12.8838 13.4423 14.1029 14.9114 15.9537 17.4228 19.9342 30 11.8311 12.2128 12.6396 13.1234 13.6819 14.3425 15.151 16.1933 17.6624 20.1738 30 12.0809 12.4626 12.8894 13.3732 13.9317 14.5923 15.4008 16.4431 17.9122 20.4236 30 12.3418 12.7235 13.1503 13.6341 14.1926 14.8532 15.6617 16.704 18.1731 20.6845 30 12.6149 12.9966 13.4233 13.9072 14.4657 15.1263 15.9347 16.9771 18.4461 20.9576 30 12.9012 13.283 13.7097 14.1935 14.752 15.4126 16.2211 17.2634 18.7325 21.2439 30 13.2023 13.584 14.0108 14.4946 15.0531 15.7137 16.5222 17.5645 19.0336 21.545 30 13.5196 13.9014 14.3281 14.8119 15.3705 16.0311 16.8395 17.8819 19.3509 21.8623 30 13.8551 14.2369 14.6636 15.1474 15.706 16.3665 17.175 18.2174 19.6864 22.1978 30 14.211 14.5927 15.0195 15.5033 16.0618 16.7224 17.5309 18.5732 20.0423 22.5537 30 14.5898 14.9715 15.3983 15.8821 16.4406 17.1012 17.9097 18.952 20.4211 22.9325 30 14.9948 15.3765 15.8032 16.2871 16.8456 17.5062 18.3146 19.357 20.8261 23.3375 30 15.4297 15.8115 16.2382 16.722 17.2806 17.9411 18.7496 19.792 21.261 23.7724 30 15.8996 16.2813 16.708 17.1919 17.7504 18.411 19.2194 20.2618 21.7308 24.2423 30 16.4103 16.792 17.2188 17.7026 18.2611 18.9217 19.7302 20.7725 22.2416 24.753 30 16.9697 17.3514 17.7782 18.262 18.8205 19.4811 20.2896 21.3319 22.801 25.3124 30 17.5881 17.9699 18.3966 18.8804 19.4389 20.0995 20.908 21.9503 23.4194 25.9308 30 18.2795 18.6612 19.0879 19.5718 20.1303 20.7909 21.5994 22.6417 24.1108 26.6222 30 19.0632 19.445 19.8717 20.3555 20.914 21.5746 22.3831 23.4254 24.8945 27.4059 30 19.968 20.3498 20.7765 21.2603 21.8188 22.4794 23.2879 24.3302 25.7993 28.3107 30 21.0382 21.4199 21.8467 22.3305 22.889 23.5496 24.3581 25.4004 26.8695 29.3809 30 22.3479 22.7297 23.1564 23.6402 24.1987 24.8593 25.6678 26.7101 28.1792 30 24.0365 24.4182 24.845 25.3288 25.8873 26.5479 27.3564 28.3987 29.8678 30 26.4164 26.7981 27.2249 27.7087 28.2672 28.9278 29.7363 30 8.95864 9.34039 9.76714 10.2509 10.8095 11.47 12.2785 13.3209 14.7899 17.3013 30 9.17095 9.55269 9.97944 10.4633 11.0218 11.6824 12.4908 13.5332 15.0022 17.5137 30 9.43055 9.81229 10.239 10.7229 11.2814 11.942 12.7504 13.7928 15.2618 17.7732 30 9.51282 9.89456 10.3213 10.8051 11.3636 12.0242 12.8327 13.875 15.3441 17.8555 30 10.0005 10.3822 10.809 11.2928 11.8513 12.5119 13.3204 14.3627 15.8318 18.3432 30 10.1092 10.2561 10.4069 10.5619 10.7213 10.8855 11.0546 11.2289 11.4089 11.5949 11.7874 11.9867 12.1933 12.408 12.6312 12.8637 13.1064 13.36 13.6258 13.9048 14.1985 14.5086 14.8369 15.1858 15.5579 15.9566 16.386 17.6311 19.2363 21.4987 25.3662 30 12.2996 12.6814 13.1081 13.5919 14.1504 14.811 15.6195 16.6618 18.1309 20.6423 30 12.5185 12.9002 13.327 13.8108 14.3693 15.0299 15.8384 16.8807 18.3498 20.8612 30 12.7462 13.128 13.5547 14.0385 14.5971 15.2576 16.0661 17.1085 18.5775 21.0889 30 12.9837 13.3655 13.7922 14.276 14.8345 15.4951 16.3036 17.3459 18.815 21.3264 30 13.2317 13.6135 14.0402 14.524 15.0826 15.7431 16.5516 17.594 19.063 21.5744 30 13.4913 13.8731 14.2998 14.7836 15.3421 16.0027 16.8112 17.8535 19.3226 21.834 30 13.7635 14.1453 14.572 15.0558 15.6144 16.2749 17.0834 18.1258 19.5948 22.1062 30 14.0497 14.4315 14.8582 15.342 15.9006 16.5612 17.3696 18.412 19.881 22.3924 30 14.3514 14.7332 15.1599 15.6437 16.2022 16.8628 17.6713 18.7136 20.1827 22.6941 30 14.6704 15.0521 15.4788 15.9627 16.5212 17.1818 17.9902 19.0326 20.5017 23.0131 30 15.0086 15.3904 15.8171 16.3009 16.8594 17.52 18.3285 19.3708 20.8399 23.3513 30 15.3687 15.7505 16.1772 16.661 17.2195 17.8801 18.6886 19.7309 21.2 23.7114 30 15.7537 16.1354 16.5622 17.046 17.6045 18.2651 19.0736 20.1159 21.585 24.0964 30 16.1672 16.5489 16.9757 17.4595 18.018 18.6786 19.4871 20.5294 21.9985 24.5099 30 16.6138 16.9955 17.4223 17.9061 18.4646 19.1252 19.9337 20.976 22.4451 24.9565 30 17.0993 17.481 17.9078 18.3916 18.9501 19.6107 20.4192 21.4615 22.9306 25.442 30 17.6311 18.0128 18.4396 18.9234 19.4819 20.1425 20.951 21.9933 23.4624 25.9738 30 18.219 18.6007 19.0275 19.5113 20.0698 20.7304 21.5389 22.5812 24.0503 26.5617 30 18.8762 19.2579 19.6847 20.1685 20.727 21.3876 22.1961 23.2384 24.7075 27.2189 30 19.6212 20.003 20.4297 20.9135 21.4721 22.1327 22.9411 23.9835 25.4525 27.9639 30 20.4814 20.8631 21.2899 21.7737 22.3322 22.9928 23.8013 24.8436 26.3127 28.8241 30 21.4987 21.8804 22.3072 22.791 23.3495 24.0101 24.8186 25.8609 27.33 29.8414 30 22.7437 23.1255 23.5522 24.036 24.5946 25.2551 26.0636 27.106 28.575 30 24.3489 24.7307 25.1574 25.6412 26.1997 26.8603 27.6688 28.7111 30 26.6113 26.993 27.4198 27.9036 28.4621 29.1227 29.9312 30 10.3353 10.717 11.1438 11.6276 12.1861 12.8467 13.6552 14.6975 16.1666 18.678 30 10.4871 10.6343 10.7865 10.944 11.107 11.2761 11.4517 11.6344 11.8246 12.0231 12.2307 12.4481 12.6764 12.9168 13.1704 13.4391 13.7245 14.0289 14.3552 14.7065 15.7252 17.0385 18.8896 22.0539 30 12.795 13.1767 13.6035 14.0873 14.6458 15.3064 16.1149 17.1572 18.6263 21.1377 30 13.0418 13.4236 13.8503 14.3341 14.8927 15.5532 16.3617 17.4041 18.8731 21.3845 30 13.3028 13.6845 14.1113 14.5951 15.1536 15.8142 16.6227 17.665 19.1341 21.6455 30 13.5795 13.9613 14.388 14.8718 15.4304 16.0909 16.8994 17.9418 19.4108 21.9222 30 13.8742 14.2559 14.6827 15.1665 15.725 16.3856 17.1941 18.2364 19.7055 22.2169 30 14.1891 14.5709 14.9976 15.4814 16.04 16.7005 17.509 18.5514 20.0204 22.5318 30 14.5275 14.9092 15.336 15.8198 16.3783 17.0389 17.8474 18.8897 20.3588 22.8702 30 14.8929 15.2746 15.7014 16.1852 16.7437 17.4043 18.2128 19.2551 20.7242 23.2356 30 15.2901 15.6718 16.0986 16.5824 17.1409 17.8015 18.61 19.6523 21.1214 23.6328 30 15.7252 16.107 16.5337 17.0175 17.576 18.2366 19.0451 20.0874 21.5565 24.0679 30 16.2062 16.5879 17.0147 17.4985 18.057 18.7176 19.5261 20.5684 22.0375 24.5489 30 16.7439 17.1257 17.5524 18.0362 18.5947 19.2553 20.0638 21.1061 22.5752 25.0866 30 17.3535 17.7353 18.162 18.6458 19.2043 19.8649 20.6734 21.7157 23.1848 25.6962 30 18.0572 18.439 18.8657 19.3495 19.9081 20.5686 21.3771 22.4195 23.8885 26.3999 30 18.8896 19.2713 19.6981 20.1819 20.7404 21.401 22.2095 23.2518 24.7209 27.2323 30 19.9083 20.29 20.7168 21.2006 21.7591 22.4197 23.2282 24.2705 25.7396 28.251 30 21.2216 21.6033 22.0301 22.5139 23.0724 23.733 24.5415 25.5838 27.0529 29.5643 30 23.0726 23.4544 23.8811 24.3649 24.9235 25.584 26.3925 27.4349 28.9039 30 26.237 26.6188 27.0455 27.5293 28.0878 28.7484 29.5569 30 10.5442 10.926 11.3527 11.8365 12.395 13.0556 13.8641 14.9064 16.3755 18.8869 30 10.7993 11.181 11.6078 12.0916 12.6501 13.3107 14.1192 15.1615 16.6306 19.142 30 11.1102 11.492 11.9187 12.4025 12.9611 13.6216 14.4301 15.4725 16.9415 19.4529 30 11.1102 11.492 11.9187 12.4025 12.9611 13.6216 14.4301 15.4725 16.9415 19.4529 30 11.4909 11.638 11.7893 11.9452 12.106 12.272 12.4435 12.6209 12.8047 12.9953 13.1932 13.399 13.6134 13.8371 14.071 14.3161 14.5734 14.8442 15.1301 15.4328 15.7545 16.0976 16.4653 16.8612 18.0093 19.4894 21.5755 25.1417 30 13.724 14.1058 14.5325 15.0163 15.5749 16.2354 17.0439 18.0863 19.5553 22.0667 30 13.9527 14.3345 14.7612 15.245 15.8036 16.4641 17.2726 18.315 19.784 22.2954 30 14.1921 14.5738 15.0006 15.4844 16.0429 16.7035 17.512 18.5543 20.0234 22.5348 30 14.4431 14.8248 15.2516 15.7354 16.2939 16.9545 17.763 18.8053 20.2744 22.7858 30 14.707 15.0887 15.5155 15.9993 16.5578 17.2184 18.0269 19.0692 20.5383 23.0497 30 14.9852 15.3669 15.7937 16.2775 16.836 17.4966 18.3051 19.3474 20.8165 23.3279 30 15.2793 15.661 16.0877 16.5716 17.1301 17.7907 18.5991 19.6415 21.1106 23.622 30 15.5912 15.9729 16.3997 16.8835 17.442 18.1026 18.9111 19.9534 21.4225 23.9339 30 15.9232 16.305 16.7317 17.2155 17.774 18.4346 19.2431 20.2854 21.7545 24.2659 30 16.2782 16.6599 17.0867 17.5705 18.129 18.7896 19.5981 20.6404 22.1095 24.6209 30 16.6595 17.0412 17.4679 17.9518 18.5103 19.1709 19.9793 21.0217 22.4908 25.0022 30 17.0713 17.453 17.8798 18.3636 18.9221 19.5827 20.3912 21.4335 22.9026 25.414 30 17.5189 17.9007 18.3274 18.8112 19.3698 20.0303 20.8388 21.8812 23.3502 25.8616 30 18.0093 18.391 18.8178 19.3016 19.8601 20.5207 21.3292 22.3715 23.8406 26.352 30 18.5514 18.9331 19.3599 19.8437 20.4022 21.0628 21.8713 22.9136 24.3827 26.8941 30 19.1574 19.5391 19.9658 20.4497 21.0082 21.6688 22.4772 23.5196 24.9887 27.5001 30 19.8444 20.2261 20.6529 21.1367 21.6952 22.3558 23.1643 24.2066 25.6757 28.1871 30 20.6375 21.0192 21.446 21.9298 22.4883 23.1489 23.9574 24.9997 26.4688 28.9802 30 21.5755 21.9572 22.384 22.8678 23.4263 24.0869 24.8954 25.9377 27.4068 29.9182 30 22.7235 23.1053 23.532 24.0158 24.5744 25.235 26.0434 27.0858 28.5548 30 24.2037 24.5854 25.0121 25.496 26.0545 26.7151 27.5235 28.5659 30 26.2897 26.6715 27.0982 27.582 28.1406 28.8011 29.6096 30 29.8559 30 11.8888 12.2706 12.6973 13.1811 13.7396 14.4002 15.2087 16.251 17.7201 20.2315 30 12.2909 12.6727 13.0994 13.5832 14.1417 14.8023 15.6108 16.6531 18.1222 20.6336 30 12.4487 12.8304 13.2572 13.741 14.2995 14.9601 15.7686 16.8109 18.28 20.7914 30 12.6466 13.0283 13.4551 13.9389 14.4974 15.158 15.9665 17.0088 18.4779 20.9893 30 12.9564 13.3381 13.7649 14.2487 14.8072 15.4678 16.2763 17.3186 18.7877 21.2991 30 13.0056 13.1525 13.3035 13.4588 13.6186 13.7833 13.9532 14.1285 14.3097 14.4971 14.6912 14.8926 15.1016 15.319 15.5455 15.7818 16.0289 16.2878 16.5596 16.8457 17.1477 17.4675 17.8073 18.1697 18.5581 18.9763 20.1891 21.7526 23.9562 27.7233 30 15.2092 15.591 16.0177 16.5015 17.06 17.7206 18.5291 19.5715 21.0405 23.5519 30 15.4311 15.8128 16.2396 16.7234 17.2819 17.9425 18.751 19.7933 21.2624 23.7738 30 15.6624 16.0441 16.4709 16.9547 17.5132 18.1738 18.9823 20.0246 21.4937 24.0051 30 15.904 16.2857 16.7125 17.1963 17.7548 18.4154 19.2239 20.2662 21.7353 24.2467 30 16.1568 16.5385 16.9653 17.4491 18.0076 18.6682 19.4767 20.519 21.9881 24.4995 30 16.422 16.8037 17.2305 17.7143 18.2728 18.9334 19.7419 20.7842 22.2533 24.7647 30 16.7007 17.0825 17.5092 17.993 18.5516 19.2121 20.0206 21.063 22.532 25.0434 30 16.9946 17.3763 17.8031 18.2869 18.8454 19.506 20.3145 21.3568 22.8259 25.3373 30 17.3052 17.687 18.1137 18.5975 19.156 19.8166 20.6251 21.6674 23.1365 25.6479 30 17.6347 18.0164 18.4432 18.927 19.4855 20.1461 20.9546 21.9969 23.466 25.9774 30 17.9855 18.3672 18.7939 19.2778 19.8363 20.4969 21.3054 22.3477 23.8168 26.3282 30 18.3604 18.7422 19.1689 19.6527 20.2112 20.8718 21.6803 22.7226 24.1917 26.7031 30 18.7632 19.1449 19.5717 20.0555 20.614 21.2746 22.0831 23.1254 24.5945 27.1059 30 19.1982 19.5799 20.0067 20.4905 21.049 21.7096 22.5181 23.5604 25.0295 27.5409 30 19.6711 20.0528 20.4796 20.9634 21.5219 22.1825 22.991 24.0333 25.5024 28.0138 30 20.1891 20.5708 20.9976 21.4814 22.0399 22.7005 23.509 24.5513 26.0204 28.5318 30 20.7617 21.1434 21.5702 22.054 22.6125 23.2731 24.0816 25.1239 26.593 29.1044 30 21.4018 21.7835 22.2103 22.6941 23.2526 23.9132 24.7217 25.764 27.2331 29.7445 30 22.1275 22.5093 22.936 23.4198 23.9783 24.6389 25.4474 26.4897 27.9588 30 22.9653 23.347 23.7738 24.2576 24.8161 25.4767 26.2852 27.3275 28.7966 30 23.9562 24.3379 24.7647 25.2485 25.807 26.4676 27.2761 28.3184 29.787