<?xml version="1.0"?><VTKFile type="PolyData" version="0.1" byte_order="LittleEndian">
<PolyData>
<Piece NumberOfLines="138" NumberOfPoints="1163">
<PointData Scalars=" PointData">
<DataArray type="Float32" Name="time" NumberOfComponents="1" format="ascii" >
0 0.364079 0.412439 0.590776 0.729169 0.982294 1.1221 1.42256 1.59076 1.78821 2.0649 2.34112 2.51354 2.66378 2.74407 2.94663 3.04217 3.16462 3.29531 3.38388 3.50758 3.62385 3.67791 3.82904 4.06308 4.2911 4.47263 4.55222 4.75545 5.02727 5.13251 5.16531 5.41473 5.59185 5.72827 5.90722 6.10667 6.12928 6.44271 6.81448 6.94756 7.23316 7.30611 7.57699 7.69245 7.88365 8.0987 8.28139 8.55853 8.73433 8.85655 9.03643 9.18763 9.37207 9.5625 9.93451 10.105 10.3267 10.3806 10.5748 10.8758 11.0481 11.2021 11.4962 11.7363 11.8702 11.9201 11.9967 12.2162 12.3169 12.4815 12.8611 13.1268 13.2769 13.3059 13.4529 13.81 14 4.21342 4.59516 5.02191 5.50572 6.06423 6.72482 7.53331 8.57564 10.0447 12.5561 14 4.267 4.64875 5.0755 5.5593 6.11782 6.77841 7.5869 8.62922 10.0983 12.6097 14 4.46468 4.84642 5.27317 5.75698 6.3155 6.97608 7.78458 8.8269 10.296 12.8074 14 4.61815 4.9999 5.42665 5.91046 6.46897 7.12956 7.93805 8.98037 10.4495 12.9609 14 4.89902 5.28076 5.70751 6.19132 6.74984 7.41042 8.21891 9.26124 10.7303 13.2417 14 5.05423 5.43597 5.86272 6.34653 6.90505 7.56564 8.37413 9.41645 10.8855 13.3969 14 5.38803 5.76977 6.19652 6.68033 7.23885 7.89943 8.70793 9.75025 11.2193 13.7307 14 5.57503 5.72178 5.87229 6.02676 6.1854 6.34846 6.51617 6.68882 6.8667 7.05014 7.23949 7.43516 7.63758 7.84723 8.06465 8.29043 8.52524 8.76984 9.02508 9.29193 9.57148 9.86502 10.174 10.5002 10.8456 11.2125 11.604 12.0234 12.4751 13.7849 14 7.74147 8.12321 8.54996 9.03377 9.59229 10.2529 11.0614 12.1037 13.5728 14 7.95493 8.33667 8.76342 9.24723 9.80575 10.4663 11.2748 12.3172 13.7862 14 8.17645 8.55819 8.98494 9.46875 10.0273 10.6879 11.4963 12.5387 14 8.40666 8.7884 9.21515 9.69896 10.2575 10.9181 11.7266 12.7689 14 8.64627 9.02801 9.45476 9.93857 10.4971 11.1577 11.9662 13.0085 14 8.89607 9.27782 9.70457 10.1884 10.7469 11.4075 12.216 13.2583 14 9.15699 9.53873 9.96548 10.4493 11.0078 11.6684 12.4769 13.5192 14 9.43004 9.81178 10.2385 10.7223 11.2809 11.9414 12.7499 13.7923 14 9.71642 10.0982 10.5249 11.0087 11.5672 12.2278 13.0363 14 10.0175 10.3992 10.826 11.3098 11.8683 12.5289 13.3374 14 10.3348 10.7166 11.1433 11.6271 12.1857 12.8462 13.6547 14 10.6703 11.0521 11.4788 11.9626 12.5211 13.1817 13.9902 14 11.0262 11.4079 11.8347 12.3185 12.877 13.5376 14 11.405 11.7867 12.2135 12.6973 13.2558 13.9164 14 11.8099 12.1917 12.6184 13.1022 13.6608 14 12.2449 12.6267 13.0534 13.5372 14 12.7147 13.0965 13.5232 14 13.2255 13.6072 14 13.7849 14 5.79466 6.1764 6.60315 7.08696 7.64548 8.30606 9.11455 10.1569 11.626 14 6.10264 6.48438 6.91113 7.39494 7.95346 8.61404 9.42254 10.4649 11.9339 14 6.41037 6.79211 7.21886 7.70267 8.26119 8.92177 9.73026 10.7726 12.2417 14 6.60259 6.98433 7.41108 7.89489 8.45341 9.11399 9.92249 10.9648 12.4339 14 6.77016 6.91691 7.06742 7.22189 7.38054 7.54359 7.7113 7.88395 8.06183 8.24527 8.43462 8.6303 8.83271 9.04236 9.25978 9.48556 9.72037 9.96497 10.2202 10.4871 10.7666 11.0602 11.3691 11.6953 12.0407 12.4077 12.7991 13.2185 13.6703 14 8.9366 9.31834 9.74509 10.2289 10.7874 11.448 12.2565 13.2988 14 9.15007 9.53181 9.95856 10.4424 11.0009 11.6615 12.47 13.5123 14 9.37158 9.75333 10.1801 10.6639 11.2224 11.883 12.6915 13.7338 14 9.60179 9.98353 10.4103 10.8941 11.4526 12.1132 12.9217 13.964 14 9.8414 10.2231 10.6499 11.1337 11.6922 12.3528 13.1613 14 10.0912 10.4729 10.8997 11.3835 11.942 12.6026 13.4111 14 10.3521 10.7339 11.1606 11.6444 12.2029 12.8635 13.672 14 10.6252 11.0069 11.4337 11.9175 12.476 13.1366 13.9451 14 10.9115 11.2933 11.72 12.2038 12.7624 13.423 14 11.2126 11.5944 12.0211 12.5049 13.0634 13.724 14 11.53 11.9117 12.3385 12.8223 13.3808 14 11.8655 12.2472 12.674 13.1578 13.7163 14 12.2213 12.603 13.0298 13.5136 14 12.6001 12.9819 13.4086 13.8924 14 13.0051 13.3868 13.8136 14 13.4401 13.8218 14 13.9099 14 6.85975 7.24149 7.66824 8.15205 8.71057 9.37115 10.1796 11.222 12.691 14 7.08586 7.23261 7.38311 7.53759 7.69623 7.85929 8.027 8.19965 8.37753 8.56096 8.75032 8.94599 9.14841 9.35806 9.57548 9.80126 10.0361 10.2807 10.5359 10.8028 11.0823 11.3759 11.6848 12.011 12.3564 12.7234 13.1148 13.5342 13.986 14 9.2523 9.63404 10.0608 10.5446 11.1031 11.7637 12.5722 13.6145 14 9.46576 9.8475 10.2743 10.7581 11.3166 11.9772 12.7857 13.828 14 9.68728 10.069 10.4958 10.9796 11.5381 12.1987 13.0072 14 9.91749 10.2992 10.726 11.2098 11.7683 12.4289 13.2374 14 10.1571 10.5388 10.9656 11.4494 12.0079 12.6685 13.477 14 10.4069 10.7886 11.2154 11.6992 12.2577 12.9183 13.7268 14 10.6678 11.0496 11.4763 11.9601 12.5186 13.1792 13.9877 14 10.9409 11.3226 11.7494 12.2332 12.7917 13.4523 14 11.2272 11.609 12.0357 12.5195 13.0781 13.7386 14 11.5283 11.9101 12.3368 12.8206 13.3791 14 11.8457 12.2274 12.6542 13.138 13.6965 14 12.1812 12.5629 12.9897 13.4735 14 12.537 12.9187 13.3455 13.8293 14 12.9158 13.2976 13.7243 14 13.3208 13.7025 14 13.7558 14 7.19254 7.57428 8.00104 8.48484 9.04336 9.70395 10.5124 11.5548 13.0238 14 7.32934 7.71109 8.13784 8.62165 9.18016 9.84075 10.6492 11.6916 13.1606 14 7.4754 7.85715 8.2839 8.76771 9.32622 9.98681 10.7953 11.8376 13.3067 14 7.57442 7.72127 7.87208 8.02708 8.18651 8.35063 8.51973 8.69411 8.87411 9.06012 9.25254 9.45184 9.65852 9.87315 10.0964 10.3289 10.5715 10.8252 11.0909 11.37 11.6637 11.9738 12.3021 12.6509 13.0231 13.4218 13.8512 14 9.7648 10.1465 10.5733 11.0571 11.6156 12.2762 13.0847 14 9.98364 10.3654 10.7921 11.2759 11.8345 12.495 13.3035 14 10.2114 10.5932 11.0199 11.5037 12.0622 12.7228 13.5313 14 10.4489 10.8306 11.2574 11.7412 12.2997 12.9603 13.7688 14 10.6969 11.0787 11.5054 11.9892 12.5477 13.2083 14 10.9565 11.3382 11.765 12.2488 12.8073 13.4679 14 11.2287 11.6105 12.0372 12.521 13.0795 13.7401 14 11.5149 11.8967 12.3234 12.8072 13.3657 14 11.8166 12.1983 12.6251 13.1089 13.6674 14 12.1355 12.5173 12.944 13.4278 13.9863 14 12.4738 12.8555 13.2823 13.7661 14 12.8339 13.2156 13.6424 14 13.2189 13.6006 14 13.6324 14 7.71277 8.09451 8.52126 9.00507 9.56358 10.2242 11.0327 12.075 13.5441 14 7.84285 8.22459 8.65134 9.13515 9.69366 10.3542 11.1627 12.2051 13.6741 14 7.90333 8.28507 8.71182 9.19563 9.75415 10.4147 11.2232 12.2656 13.7346 14 8.07252 8.45426 8.88101 9.36482 9.92334 10.5839 11.3924 12.4347 13.9038 14 8.33467 8.71641 9.14316 9.62697 10.1855 10.8461 11.6546 12.6969 14 8.59028 8.73729 8.88862 9.04454 9.20533 9.37131 9.54282 9.72025 9.90402 10.0946 10.2925 10.4983 10.7127 10.9365 11.1704 11.4154 11.6727 11.9435 12.2294 12.5322 12.8538 13.197 13.5646 13.9606 14 10.8234 11.2051 11.6319 12.1157 12.6742 13.3348 14 11.0521 11.4338 11.8606 12.3444 12.9029 13.5635 14 11.2914 11.6732 12.0999 12.5837 13.1422 13.8028 14 11.5424 11.9242 12.3509 12.8347 13.3933 14 11.8063 12.1881 12.6148 13.0986 13.6572 14 12.0845 12.4663 12.893 13.3768 13.9353 14 12.3786 12.7603 13.1871 13.6709 14 12.6905 13.0722 13.499 13.9828 14 13.0225 13.4043 13.831 14 13.3775 13.7592 14 13.7588 14 8.7939 9.17564 9.6024 10.0862 10.6447 11.3053 12.1138 13.1561 14 8.88321 9.26495 9.6917 10.1755 10.734 11.3946 12.2031 13.2454 14 9.11138 9.49312 9.91987 10.4037 10.9622 11.6228 12.4313 13.4736 14 9.41678 9.79852 10.2253 10.7091 11.2676 11.9282 12.7367 13.779 14 9.53511 9.91685 10.3436 10.8274 11.3859 12.0465 12.855 13.8973 14 9.57199 9.95373 10.3805 10.8643 11.4228 12.0834 12.8919 13.9342 14 9.8526 10.2343 10.6611 11.1449 11.7034 12.364 13.1725 14 10.052 10.4338 10.8605 11.3443 11.9028 12.5634 13.3719 14 10.2057 10.5874 11.0142 11.498 12.0565 12.7171 13.5256 14 10.4074 10.7891 11.2159 11.6997 12.2582 12.9188 13.7273 14 10.6323 10.7792 10.93 11.085 11.2444 11.4085 11.5776 11.752 11.932 12.118 12.3104 12.5097 12.7164 12.931 13.1543 13.3868 13.6294 13.8831 14 12.8227 13.2044 13.6312 14 13.0415 13.4233 13.85 14 13.2693 13.651 14 13.5068 13.8885 14 13.7548 14 10.6578 11.0396 11.4663 11.9501 12.5086 13.1692 13.9777 14 11.0116 11.1585 11.3095 11.4648 11.6247 11.7894 11.9592 12.1345 12.3157 12.5031 12.6973 12.8986 13.1076 13.325 13.5515 13.7879 14 13.2153 13.597 14 13.4371 13.8189 14 13.6684 14 13.91 14 11.4318 11.8135 12.2403 12.7241 13.2826 13.9432 14 11.5823 11.9641 12.3908 12.8746 13.4332 14 11.9056 12.0525 12.2035 12.3588 12.5187 12.6834 12.8532 13.0285 13.2097 13.3971 13.5913 13.7926 14 11.9883 12.1351 12.2859 12.4409 12.6004 12.7645 12.9336 13.108 13.288 13.474 13.6664 13.8657 14 12.2953 12.677 13.1038 13.5876 14 12.4263 12.808 13.2347 13.7186 14 12.6432 12.7901 12.9409 13.0959 13.2553 13.4194 13.5885 13.7629 13.9429 14 12.8875 13.2692 13.6959 14 13.0951 13.4768 13.9036 14 13.4103 13.5573 13.7086 13.8646 14 13.6104 13.9922 14 13.7496 13.8966 14 13.9546 14 
</DataArray>

</PointData>
<CellData Scalars=" CellData">
<DataArray type="Float32" Name="radius" NumberOfComponents="1" format="ascii" >
0.023 0.008 0.008 0.008 0.008 0.008 0.008 0.008 0.023 0.008 0.008 0.008 0.008 0.008 0.008 0.008 0.008 0.008 0.008 0.008 0.008 0.008 0.008 0.008 0.008 0.008 0.008 0.008 0.008 0.008 0.008 0.008 0.023 0.008 0.008 0.008 0.008 0.008 0.008 0.008 0.008 0.008 0.008 0.008 0.008 0.008 0.008 0.008 0.008 0.008 0.008 0.023 0.008 0.008 0.008 0.008 0.008 0.008 0.008 0.008 0.008 0.008 0.008 0.008 0.008 0.008 0.008 0.008 0.008 0.008 0.008 0.023 0.008 0.008 0.008 0.008 0.008 0.008 0.008 0.008 0.008 0.008 0.008 0.008 0.008 0.008 0.008 0.008 0.008 0.008 0.008 0.023 0.008 0.008 0.008 0.008 0.008 0.008 0.008 0.008 0.008 0.008 0.008 0.008 0.008 0.008 0.008 0.008 0.008 0.008 0.008 0.008 0.008 0.023 0.008 0.008 0.008 0.008 0.008 0.008 0.023 0.008 0.008 0.008 0.008 0.008 0.008 0.023 0.023 0.008 0.008 0.023 0.008 0.008 0.023 0.008 0.023 0.023 
</DataArray>
<DataArray type="Float32" Name="subType" NumberOfComponents="1" format="ascii" >
1 3 3 3 3 3 3 3 2 3 3 3 3 3 3 3 3 3 3 3 3 3 3 3 3 3 3 3 3 3 3 3 2 3 3 3 3 3 3 3 3 3 3 3 3 3 3 3 3 3 3 2 3 3 3 3 3 3 3 3 3 3 3 3 3 3 3 3 3 3 3 2 3 3 3 3 3 3 3 3 3 3 3 3 3 3 3 3 3 3 3 2 3 3 3 3 3 3 3 3 3 3 3 3 3 3 3 3 3 3 3 3 3 2 3 3 3 3 3 3 2 3 3 3 3 3 3 2 2 3 3 2 3 3 2 3 2 2 
</DataArray>
<DataArray type="Float32" Name="creationTime" NumberOfComponents="1" format="ascii" >
0 4.21342 4.267 4.46468 4.61815 4.89902 5.05423 5.38803 5.57503 7.74147 7.95493 8.17645 8.40666 8.64627 8.89607 9.15699 9.43004 9.71642 10.0175 10.3348 10.6703 11.0262 11.405 11.8099 12.2449 12.7147 13.2255 13.7849 5.79466 6.10264 6.41037 6.60259 6.77016 8.9366 9.15007 9.37158 9.60179 9.8414 10.0912 10.3521 10.6252 10.9115 11.2126 11.53 11.8655 12.2213 12.6001 13.0051 13.4401 13.9099 6.85975 7.08586 9.2523 9.46576 9.68728 9.91749 10.1571 10.4069 10.6678 10.9409 11.2272 11.5283 11.8457 12.1812 12.537 12.9158 13.3208 13.7558 7.19254 7.32934 7.4754 7.57442 9.7648 9.98364 10.2114 10.4489 10.6969 10.9565 11.2287 11.5149 11.8166 12.1355 12.4738 12.8339 13.2189 13.6324 7.71277 7.84285 7.90333 8.07252 8.33467 8.59028 10.8234 11.0521 11.2914 11.5424 11.8063 12.0845 12.3786 12.6905 13.0225 13.3775 13.7588 8.7939 8.88321 9.11138 9.41678 9.53511 9.57199 9.8526 10.052 10.2057 10.4074 10.6323 12.8227 13.0415 13.2693 13.5068 13.7548 10.6578 11.0116 13.2153 13.4371 13.6684 13.91 11.4318 11.5823 11.9056 11.9883 12.2953 12.4263 12.6432 12.8875 13.0951 13.4103 13.6104 13.7496 13.9546 
</DataArray>

</CellData>
<Points>
<DataArray type="Float32" Name="Coordinates" NumberOfComponents="3" format="ascii" >
0 0 -3 -0.0123452 0.00108471 -3.99992 -0.0149051 0.00146176 -4.132 -0.0178026 -0.00108991 -4.61766 -0.0211167 -0.00393389 -4.99294 -0.0193408 0.00518792 -5.67575 -0.0246994 -0.000696603 -6.05086 -0.0171397 -0.010215 -6.8524 -0.0236188 -0.00945378 -7.29833 -0.023667 -0.0141911 -7.81928 -0.024183 -0.0404854 -8.54424 -0.0209676 -0.0215696 -9.26289 -0.0198111 -0.00261087 -9.70858 -0.0286697 0.00584054 -10.0954 -0.0333285 0.0175152 -10.3012 -0.0148886 0.0560758 -10.8177 -0.00164351 0.0570064 -11.0608 0.00942854 0.0679945 -11.3715 0.0246223 0.061447 -11.7021 0.0299948 0.0568264 -11.9256 0.0366 0.0497626 -12.2369 0.041272 0.0436978 -12.5287 0.0433189 0.0396932 -12.6639 0.0339987 0.0504721 -13.0411 0.0303277 0.0780026 -13.6219 0.0700176 0.0500644 -14.1829 0.102667 0.0293575 -14.627 0.103556 0.0127001 -14.8211 0.108478 0.000654484 -15.3164 0.0985319 -0.0191514 -15.9746 0.0858587 -0.0325025 -16.2276 0.082595 -0.0368912 -16.3063 0.0603011 -0.0593465 -16.9034 0.0465675 -0.0762259 -17.325 0.0340286 -0.0830808 -17.6485 0.0351085 -0.103265 -18.071 0.0398939 -0.112248 -18.54 0.0396757 -0.113854 -18.5929 0.0369756 -0.131584 -19.3244 0.0405528 -0.167134 -20.1836 0.0402809 -0.178361 -20.4892 0.0516016 -0.204838 -21.1411 0.0611697 -0.208596 -21.3067 0.10047 -0.209767 -21.9185 0.11148 -0.214627 -22.1783 0.117074 -0.229068 -22.6068 0.113015 -0.233572 -23.0865 0.111372 -0.23387 -23.4919 0.106126 -0.230022 -24.103 0.108065 -0.23373 -24.4883 0.10031 -0.244227 -24.7549 0.106765 -0.260215 -25.1457 0.113174 -0.269201 -25.4728 0.113972 -0.28618 -25.87 0.115324 -0.303332 -26.2781 0.0830619 -0.303845 -27.0693 0.0918602 -0.297265 -27.4294 0.103005 -0.286215 -27.8952 0.104112 -0.281519 -28.008 0.0993948 -0.276967 -28.4134 0.101583 -0.270612 -29.0375 0.0954604 -0.278226 -29.3926 0.0828671 -0.264478 -29.708 0.0584178 -0.241528 -30.307 0.046091 -0.244809 -30.7931 0.0415753 -0.252623 -31.0627 0.0404428 -0.254538 -31.1629 0.0391745 -0.253781 -31.3168 0.051621 -0.26652 -31.7553 0.0594986 -0.26505 -31.9554 0.0769934 -0.260535 -32.2814 0.0942092 -0.287995 -33.0281 0.112421 -0.25317 -33.5454 0.121421 -0.232895 -33.836 0.124188 -0.229529 -33.8919 0.142277 -0.208708 -34.1748 0.122832 -0.235157 -34.8594 0.113975 -0.25652 -35.2207 -0.0123452 0.00108471 -3.99992 -0.538489 -0.722307 -4.447 -1.08857 -1.38752 -4.95187 -1.77086 -2.11336 -5.03928 -2.57722 -2.66778 -5.2452 -3.19307 -3.12963 -5.8835 -3.96312 -3.50116 -6.40215 -4.6537 -3.65609 -7.10861 -5.36484 -3.7164 -7.80908 -6.12764 -3.85927 -8.43973 -6.38131 -3.90941 -8.64262 -0.0149051 0.00146176 -4.132 0.902133 0.0856772 -4.5218 1.77711 0.203548 -4.9914 2.72602 0.328331 -5.28121 3.67279 0.113499 -5.52097 4.36264 -0.361443 -6.06736 4.83379 -0.516492 -6.93568 5.79535 -0.416701 -7.19147 6.76613 -0.327089 -7.41408 7.71232 -0.0305898 -7.54375 8.01136 0.0608006 -7.60526 -0.0178026 -0.00108991 -4.61766 -0.960373 -0.104156 -4.93537 -1.75409 0.27633 -5.40997 -2.44835 0.361298 -6.12466 -3.11722 0.457836 -6.86174 -3.86617 0.517063 -7.52171 -4.63051 0.703824 -8.13889 -4.59326 0.741086 -9.1375 -4.71455 0.609456 -10.1214 -4.80231 0.989856 -11.042 -4.81298 1.04343 -11.3171 -0.0211167 -0.00393389 -4.99294 0.253896 -0.892026 -5.36126 0.497762 -1.82084 -5.64024 0.106057 -2.73937 -5.58664 -0.402397 -3.59563 -5.67776 -0.877016 -4.4718 -5.59377 -1.25998 -5.39556 -5.59547 -1.93065 -6.01869 -5.99785 -2.55703 -6.61849 -6.49574 -3.12045 -7.22169 -7.06028 -3.30367 -7.38499 -7.10424 -0.0193408 0.00518792 -5.67575 -0.834144 0.451941 -6.04522 -1.643 0.898427 -6.42784 -2.50507 1.29371 -6.745 -3.32426 1.79372 -7.02594 -3.99722 2.37753 -7.48012 -4.83869 2.11436 -7.952 -5.74109 2.00772 -8.36951 -6.60142 2.27053 -8.80626 -7.47699 2.51382 -9.22362 -7.64229 2.55927 -9.3028 -0.0246994 -0.000696603 -6.05086 -0.77794 0.107854 -6.69958 -1.50249 0.204102 -7.38206 -2.01105 0.143869 -8.24097 -2.59592 -0.0966494 -9.01562 -3.36227 -0.393877 -9.58515 -4.19721 -0.585972 -10.1009 -5.06415 -0.774617 -10.5622 -5.88466 -0.812745 -11.1326 -6.71007 -0.344978 -11.4486 -6.84689 -0.289286 -11.4897 -0.0171397 -0.010215 -6.8524 -0.794058 -0.571215 -7.13819 -1.56646 -1.20624 -7.15025 -2.34101 -1.83875 -7.14911 -3.14715 -2.34068 -7.46249 -3.80587 -2.95539 -7.89631 -4.48883 -3.47704 -8.40764 -5.17489 -4.00823 -8.90479 -5.93525 -4.33447 -9.46642 -6.60622 -4.38821 -10.2059 -6.65801 -4.38971 -10.2554 -0.0236188 -0.00945378 -7.29833 -0.15894 0.354724 -7.39352 -0.266807 0.70945 -7.54364 -0.372263 1.06568 -7.6919 -0.481162 1.43017 -7.81553 -0.577083 1.79399 -7.9513 -0.595748 2.16892 -8.08943 -0.62624 2.54405 -8.22489 -0.692455 2.92555 -8.32524 -0.791113 3.30098 -8.4218 -0.855886 3.68594 -8.50904 -0.921757 4.06996 -8.59954 -0.951627 4.45481 -8.7044 -1.0092 4.84957 -8.73353 -1.07143 5.24388 -8.75904 -1.15568 5.6332 -8.79545 -1.23896 6.02271 -8.83214 -1.34243 6.40903 -8.83963 -1.4419 6.79635 -8.84893 -1.56803 7.17551 -8.83074 -1.66889 7.55888 -8.77734 -1.80718 7.93206 -8.73712 -1.94611 8.30663 -8.71731 -2.0119 8.70059 -8.69558 -2.07479 9.0956 -8.69231 -2.15129 9.48789 -8.70809 -2.19765 9.88459 -8.73017 -2.23629 10.2765 -8.80007 -2.27685 10.6693 -8.86383 -2.50493 11.6419 -8.81908 -2.53968 11.7809 -8.80506 -0.0236188 -0.00945378 -7.29833 -0.0573379 0.364736 -6.37159 -0.281672 0.815191 -5.50743 -0.460983 1.51229 -4.81325 -0.424543 2.16573 -4.05714 -0.812352 2.46702 -3.18603 -0.998565 3.07821 -2.41676 -1.07234 3.68392 -1.62451 -1.33026 4.43918 -1.02197 -1.48041 4.60326 -1.02667 -0.15894 0.354724 -7.39352 -0.747193 0.651193 -6.64115 -1.25416 0.640463 -5.77926 -1.82109 0.616251 -4.95584 -2.36666 0.619322 -4.11778 -2.7748 1.21152 -3.423 -3.18998 1.77181 -2.70628 -3.66435 2.26968 -1.98025 -4.25767 2.90236 -1.48258 -4.32331 2.97643 -1.42482 -0.266807 0.70945 -7.54364 -1.05367 0.642595 -8.15713 -1.93963 0.583936 -8.61717 -2.43083 1.03068 -9.36493 -3.14827 1.65519 -9.67359 -3.78294 2.38132 -9.938 -4.74542 2.49135 -10.1861 -5.65536 2.67996 -10.5554 -6.48542 2.54154 -11.0877 -0.372263 1.06568 -7.6919 -0.836221 0.874172 -8.55681 -1.38056 0.729438 -9.38309 -1.96618 0.581461 -10.1801 -2.55757 0.415996 -10.9693 -3.08405 0.165281 -11.7817 -3.91041 -0.0881888 -12.2845 -4.52775 0.0146725 -13.0645 -5.36275 -0.0281274 -13.2832 -0.481162 1.43017 -7.81553 -1.19893 1.16953 -8.46119 -1.82927 0.824214 -9.15647 -2.53437 0.561499 -9.81512 -3.2988 0.272248 -10.3913 -4.04863 0.00566989 -10.9969 -4.794 -0.319593 -11.5788 -5.51026 -0.944303 -11.8897 -6.08716 -1.36093 -11.987 -0.577083 1.79399 -7.9513 -1.26254 2.13386 -7.30738 -2.01522 2.24565 -6.65855 -2.89807 2.50315 -6.26577 -3.81059 2.79025 -5.97444 -4.66763 3.29732 -5.88293 -5.54651 3.5331 -5.46824 -6.45425 3.81676 -5.15913 -6.95352 3.89975 -4.93052 -0.595748 2.16892 -8.08943 -0.229426 2.18977 -9.01969 0.287302 1.99123 -9.8525 0.848985 1.8063 -10.6589 1.432 1.78325 -11.471 1.79149 1.735 -12.4029 1.83958 1.85539 -13.3945 1.90796 1.75252 -14.3869 1.92199 1.76138 -14.7593 -0.62624 2.54405 -8.22489 -1.46406 2.66666 -8.75689 -2.43535 2.70557 -8.99159 -3.28281 3.04341 -9.40107 -4.06638 3.53083 -9.78635 -4.89681 3.73605 -10.3043 -5.5799 3.99638 -10.9867 -6.06327 4.17737 -11.8432 -6.13636 4.19411 -11.9926 -0.692455 2.92555 -8.32524 -0.0268282 3.51988 -7.87388 0.550418 4.10835 -7.30777 1.19578 4.68723 -6.80937 1.86277 5.20263 -6.27133 2.54783 5.82571 -5.89389 3.23432 6.40179 -5.45019 3.90745 6.92103 -5.06293 -0.791113 3.30098 -8.4218 -0.108983 3.7706 -8.9823 0.777735 3.94472 -9.41057 1.7537 4.03978 -9.60666 2.72578 4.26264 -9.6801 3.69958 4.47479 -9.76205 4.67699 4.68303 -9.79798 5.18035 5.05159 -10.0383 -0.855886 3.68594 -8.50904 -0.0114092 4.21603 -8.4325 0.749811 4.8271 -8.21539 1.72562 5.03823 -8.27215 2.66881 5.29251 -8.48599 3.63181 5.55892 -8.52674 4.53657 5.97221 -8.62972 4.86056 6.11234 -8.71679 -0.921757 4.06996 -8.59954 -1.48404 4.76287 -8.1482 -1.88145 5.48149 -7.57755 -1.84796 6.00017 -6.72324 -1.68792 6.14042 -5.74614 -1.48233 6.36745 -4.7942 -1.26186 6.59165 -3.84492 -1.25938 6.59444 -3.83481 -0.951627 4.45481 -8.7044 -0.133933 5.03029 -8.71854 0.766216 5.40428 -8.49524 1.66464 5.82411 -8.36646 2.49226 6.36216 -8.20666 3.31973 6.86658 -7.95998 3.85062 7.14295 -7.93348 -1.0092 4.84957 -8.73353 -1.894 5.13659 -9.1006 -2.83036 5.0961 -9.44931 -3.78539 5.09997 -9.74579 -4.68897 5.25215 -10.1463 -5.4522 5.73202 -10.5789 -5.55493 5.77145 -10.609 -1.07143 5.24388 -8.75904 -1.67713 5.56441 -8.03077 -2.34283 5.84557 -7.33954 -2.8691 6.09735 -6.52736 -3.36708 6.35495 -5.69931 -3.65317 6.46745 -5.25989 -1.15568 5.6332 -8.79545 -2.08641 5.72911 -8.44255 -2.96068 5.86997 -7.97798 -3.88979 6.11984 -7.70539 -4.65289 6.43003 -7.54432 -1.23896 6.02271 -8.83214 -1.13881 6.23421 -9.80437 -0.967014 6.3465 -10.7831 -1.14059 6.75159 -11.6655 -1.34243 6.40903 -8.83963 -1.32666 6.87299 -7.95391 -1.38469 7.22376 -7.10031 -1.4419 6.79635 -8.84893 -1.2093 7.03466 -8.37843 -0.023667 -0.0141911 -7.81928 -0.246272 0.648726 -8.53412 -0.818763 1.21538 -9.1267 -1.39336 1.78848 -9.71099 -1.90495 2.5701 -10.0679 -2.35981 3.31579 -10.5547 -2.82057 4.03104 -11.0802 -3.09899 4.92929 -11.4202 -3.52743 5.8019 -11.6548 -3.94373 6.47788 -12.1969 -0.024183 -0.0404854 -8.54424 -0.279872 -0.963878 -8.83054 -0.591295 -1.85147 -9.16994 -1.0217 -2.70585 -9.46113 -1.35938 -3.63102 -9.63441 -1.69554 -4.55441 -9.44907 -2.27133 -5.36773 -9.53265 -2.79724 -6.21826 -9.53041 -3.49167 -6.72104 -9.01565 -4.2951 -6.82127 -8.69944 -0.0209676 -0.0215696 -9.26289 -0.0289746 0.927373 -9.57824 -0.0521969 1.70478 -10.2068 -0.0589374 2.50892 -10.8012 -0.106225 3.34693 -11.3448 -0.117516 4.20897 -11.8515 -0.00119807 5.1853 -12.0338 -0.351906 6.10884 -12.1891 -0.8189 6.98825 -12.2815 -1.19206 7.65873 -12.3318 -0.0198111 -0.00261087 -9.70858 0.574922 0.800736 -9.73902 1.1376 1.5305 -10.1274 1.59699 2.3855 -10.3681 2.02713 3.27448 -10.5253 2.81636 3.85282 -10.7318 3.41475 4.63403 -10.9096 4.06425 5.3909 -10.9824 4.8257 6.03371 -10.8989 5.29742 6.54952 -10.9628 -0.0286697 0.00584054 -10.0954 -0.364079 0.204419 -10.1852 -0.645242 0.453017 -10.3236 -0.962849 0.662669 -10.4468 -1.27047 0.908692 -10.5163 -1.5392 1.19337 -10.5985 -1.8016 1.48349 -10.682 -2.07324 1.76985 -10.7469 -2.37645 2.02292 -10.8103 -2.67909 2.27484 -10.8806 -2.96642 2.54381 -10.952 -3.29489 2.76799 -10.995 -3.58279 3.04028 -11.0495 -3.87387 3.30648 -11.1159 -4.12909 3.60205 -11.2025 -4.36162 3.91921 -11.2756 -4.62606 4.20117 -11.3784 -4.89142 4.48163 -11.4829 -5.14964 4.78205 -11.5383 -5.40445 5.0849 -11.5962 -5.68943 5.36134 -11.6449 -5.97199 5.63919 -11.6994 -6.31674 5.83663 -11.7459 -6.65269 6.04609 -11.803 -6.98312 6.24497 -11.9091 -7.29867 6.44868 -12.0467 -7.61742 6.67257 -12.1377 -7.95116 6.88623 -12.1921 -8.27446 7.10816 -12.271 -8.48627 7.26012 -12.3525 -0.0286697 0.00584054 -10.0954 -0.453589 -0.401616 -10.9037 -0.688811 -0.612728 -11.8525 -0.990268 -0.644936 -12.8054 -1.35779 -1.03171 -13.6512 -1.78521 -1.44664 -14.4544 -2.13485 -1.79413 -15.3245 -2.39467 -2.14606 -16.2237 -2.29672 -2.55849 -16.5382 -0.364079 0.204419 -10.1852 -0.960254 -0.242972 -10.8519 -1.48011 -1.0461 -11.143 -2.04688 -1.84637 -11.3388 -2.40103 -2.57654 -11.9231 -2.42663 -2.83287 -12.8894 -2.19519 -2.54619 -13.819 -1.96305 -2.25947 -14.7485 -1.96846 -2.16869 -15.1152 -0.645242 0.453017 -10.3236 -1.17356 0.000639967 -11.0421 -1.31354 -0.346697 -11.9693 -1.36763 -0.773728 -12.8719 -1.39211 -1.21383 -13.7696 -1.37639 -1.67889 -14.6547 -1.3439 -2.15297 -15.5346 -1.32144 -2.71619 -16.3606 -1.36774 -2.80541 -16.5478 -0.962849 0.662669 -10.4468 -1.12545 1.64274 -10.3326 -1.26997 2.55192 -9.94211 -1.25616 3.54816 -10.0277 -1.19335 4.54458 -10.0841 -1.04574 5.49741 -9.81887 -0.851564 6.41948 -9.4841 -0.607846 7.116 -8.80921 -0.598419 7.13568 -8.78915 -1.27047 0.908692 -10.5163 -1.0882 1.62083 -11.1943 -0.896928 2.3308 -11.8721 -0.607597 3.01336 -12.5432 -0.259079 3.83691 -12.9907 0.0283268 4.56707 -13.6106 0.285501 5.03212 -14.4577 0.707183 5.522 -14.9729 -1.5392 1.19337 -10.5985 -2.45609 0.795935 -10.6352 -3.29282 0.259292 -10.5262 -4.13673 -0.270885 -10.4441 -4.82677 -0.924772 -10.1338 -5.28547 -1.58187 -9.53566 -5.76474 -2.21976 -8.93283 -6.01201 -2.74208 -8.77126 -1.8016 1.48349 -10.682 -2.69573 1.21257 -10.3254 -3.46759 0.645042 -10.0388 -4.25326 0.0886326 -9.76836 -5.04138 -0.466036 -9.50151 -5.97274 -0.612199 -9.16804 -6.89454 -0.777908 -8.81757 -7.22822 -0.845639 -8.755 -2.07324 1.76985 -10.7469 -1.74247 2.0672 -9.85125 -1.61817 2.15689 -8.86307 -1.98539 2.41576 -7.96969 -2.13573 2.81634 -7.06584 -2.03624 3.13723 -6.12396 -2.36368 3.74041 -5.39667 -2.38462 3.77941 -5.35589 -2.37645 2.02292 -10.8103 -3.03136 1.43272 -11.2823 -3.88264 1.16752 -11.735 -4.67792 0.949749 -12.3008 -5.44719 0.679135 -12.8796 -6.17455 0.0269389 -13.0931 -6.70998 -0.462284 -13.2192 -2.67909 2.27484 -10.8806 -2.53873 3.26182 -10.8021 -2.16437 4.14661 -10.5246 -1.70413 4.94421 -10.1347 -1.40092 5.75054 -9.62688 -1.05993 6.5481 -9.12925 -0.900301 6.81675 -8.93737 -2.96642 2.54381 -10.952 -2.50418 3.4256 -11.0457 -2.10502 4.3421 -11.0192 -1.52013 5.09939 -11.3097 -1.10295 6.00159 -11.4193 -0.906773 6.92158 -11.3594 -3.29489 2.76799 -10.995 -3.20307 3.15846 -10.079 -3.27998 3.78064 -9.29989 -3.3678 4.43073 -8.54513 -3.16577 4.85812 -7.66392 -3.03234 5.07747 -7.29203 -3.58279 3.04028 -11.0495 -3.36072 3.85138 -10.5084 -3.11119 4.65832 -9.97307 -2.90053 5.45083 -9.40075 -2.69514 6.10253 -8.84722 -3.87387 3.30648 -11.1159 -4.81552 3.01656 -10.9449 -5.60216 2.4014 -10.8924 -6.32132 1.97446 -10.3441 -6.45575 1.87006 -10.2303 -4.12909 3.60205 -11.2025 -4.96314 3.39752 -10.6901 -5.83321 3.12913 -10.2767 -6.17159 2.9162 -10.2428 -4.36162 3.91921 -11.2756 -4.74615 4.23708 -10.4089 -4.77739 4.41206 -10.0152 -4.62606 4.20117 -11.3784 -4.51912 4.42028 -11.4086 -0.0333285 0.0175152 -10.3012 -0.565597 -0.553353 -10.9264 -1.06732 -1.15075 -11.552 -1.45384 -1.84452 -12.1597 -2.02439 -2.46963 -12.6923 -2.40091 -3.12099 -13.3511 -2.76463 -3.82503 -13.961 -3.09728 -4.66337 -14.3929 -3.44536 -5.44077 -14.9168 -3.40855 -5.75546 -15.4339 -0.0148886 0.0560758 -10.8177 -0.353658 -0.0660851 -10.9918 -0.677842 -0.194639 -11.1877 -1.03371 -0.327867 -11.3126 -1.38995 -0.465977 -11.431 -1.75918 -0.592633 -11.5184 -2.12574 -0.723045 -11.6112 -2.49364 -0.853574 -11.6985 -2.84067 -1.0245 -11.8003 -3.19926 -1.1452 -11.93 -3.55959 -1.25486 -12.0647 -3.88108 -1.38915 -12.2612 -4.20102 -1.51025 -12.4685 -4.54016 -1.61083 -12.6553 -4.89107 -1.69999 -12.8253 -5.23386 -1.86458 -12.9494 -5.606 -1.98463 -13.0337 -5.97861 -2.1039 -13.117 -6.33281 -2.27151 -13.1972 -6.70319 -2.41866 -13.2314 -7.06687 -2.55809 -13.3225 -7.42841 -2.68079 -13.4418 -7.79947 -2.78519 -13.5486 -8.1792 -2.85993 -13.6497 -8.54927 -2.95042 -13.7716 -8.91392 -3.03431 -13.913 -9.27124 -3.14727 -14.0529 -9.63771 -3.271 -14.1548 -9.99965 -3.39927 -14.2668 -10.0104 -3.40297 -14.2703 -0.0148886 0.0560758 -10.8177 -0.119718 0.429096 -11.7396 -0.188462 0.527282 -12.7324 -0.340799 0.893958 -13.6502 -0.684808 1.12096 -14.5613 -1.09785 1.3482 -15.4432 -1.46748 1.5462 -16.351 -0.981637 1.89193 -17.1538 -0.825241 1.97979 -17.3977 -0.353658 -0.0660851 -10.9918 -0.698126 0.118403 -11.9123 -0.863031 0.26898 -12.887 -1.06539 0.37422 -13.8607 -0.869572 1.00901 -14.6081 -0.786601 1.55299 -15.4431 -1.06139 2.1157 -16.2228 -1.35766 2.69229 -16.9842 -1.37849 2.77683 -17.0927 -0.677842 -0.194639 -11.1877 -1.46632 0.369056 -11.4338 -2.2587 0.934322 -11.6631 -3.01542 1.38308 -12.1385 -3.84517 1.85413 -12.4379 -4.63151 2.45297 -12.5898 -5.20619 3.25887 -12.7321 -5.72815 4.05972 -12.8054 -1.03371 -0.327867 -11.3126 -1.56175 -0.715905 -10.5573 -2.12303 -1.19813 -9.88464 -2.57902 -1.80406 -9.23278 -2.75544 -2.52021 -8.5575 -2.89605 -3.20248 -7.84004 -3.03681 -3.88488 -7.12275 -3.12385 -4.36055 -6.53744 -1.38995 -0.465977 -11.431 -1.55256 -0.612166 -12.4068 -1.19914 -0.827289 -13.3172 -1.47287 -1.11574 -14.2348 -1.91545 -1.73813 -14.8803 -2.3726 -2.29898 -15.5706 -2.8773 -2.81766 -16.2607 -3.14952 -3.0883 -16.6372 -1.75918 -0.592633 -11.5184 -1.80132 -0.678783 -12.5138 -1.96262 -1.03066 -13.4358 -2.09417 -1.52311 -14.2962 -2.32179 -1.94813 -15.1723 -2.57705 -2.44449 -16.002 -2.86602 -2.43779 -16.9593 -2.93498 -2.46527 -17.2402 -2.12574 -0.723045 -11.6112 -2.2549 -1.07031 -12.5401 -2.30512 -1.42916 -13.4721 -2.14694 -1.51545 -14.4557 -1.96753 -1.58251 -15.4372 -1.80023 -1.67797 -16.4185 -1.81333 -1.52472 -17.4066 -1.81324 -1.52191 -17.4199 -2.49364 -0.853574 -11.6985 -1.91747 -1.6367 -11.9325 -1.27808 -2.36605 -12.1759 -0.693138 -3.13409 -12.4366 -0.222223 -3.9446 -12.7849 0.0428241 -4.89608 -12.9411 0.188921 -5.57692 -13.0261 -2.84067 -1.0245 -11.8003 -3.35452 -1.06659 -10.9434 -3.45485 -0.863797 -9.96933 -3.4968 -0.477311 -9.04799 -3.92576 -0.199127 -8.18857 -4.37905 -0.0932701 -7.30351 -4.53593 -0.055303 -6.99525 -3.19926 -1.1452 -11.93 -3.20857 -1.96073 -12.5087 -3.23044 -2.78217 -13.0786 -3.04575 -3.43039 -13.8173 -2.50729 -3.82783 -14.5603 -1.97631 -4.15857 -15.2685 -3.55959 -1.25486 -12.0647 -3.65056 -1.71997 -12.9453 -3.73095 -2.18482 -13.827 -3.60524 -2.86667 -14.5476 -3.42896 -3.44062 -15.3473 -3.32679 -3.69712 -15.7426 -3.88108 -1.38915 -12.2612 -4.57061 -1.08342 -11.6047 -5.21149 -0.790375 -10.8952 -5.70973 -0.378859 -10.132 -6.21763 -0.132683 -9.37181 -4.20102 -1.51025 -12.4685 -3.96186 -1.82359 -13.3875 -3.69571 -2.22989 -14.2617 -3.39719 -2.44589 -15.1913 -3.35598 -2.52099 -15.5018 -4.54016 -1.61083 -12.6553 -5.27797 -1.09754 -12.2169 -5.93276 -0.349309 -12.1101 -6.28276 0.0803791 -11.9192 -4.89107 -1.69999 -12.8253 -5.23335 -2.56311 -12.454 -5.62907 -3.12798 -12.2878 -5.23386 -1.86458 -12.9494 -5.69635 -1.83049 -12.4913 -0.00164351 0.0570064 -11.0608 -0.0294702 -0.939939 -11.1338 -0.0387987 -1.93894 -11.1776 -0.412144 -2.79599 -11.5326 -0.799232 -3.62939 -11.9271 -0.768539 -4.62887 -11.9367 -0.379914 -5.50849 -12.211 0.275111 -6.26278 -12.2557 0.837395 -7.08946 -12.2349 1.05813 -7.50321 -12.1783 0.00942854 0.0679945 -11.3715 0.403066 -0.776685 -11.7343 0.760498 -1.61454 -12.1469 1.11175 -2.28622 -12.7992 1.28403 -3.03084 -13.444 1.51606 -3.69743 -14.1524 1.85582 -4.42826 -14.7444 1.66793 -5.33827 -15.114 1.50221 -6.2512 -15.4869 1.48982 -6.63882 -15.6306 0.0246223 0.061447 -11.7021 -0.53536 -0.687782 -12.0558 -1.2712 -1.3588 -12.1467 -1.9795 -1.98706 -12.4686 -2.59675 -2.63003 -12.922 -3.37227 -3.24085 -13.0816 -4.20319 -3.78031 -13.2178 -5.13907 -4.07434 -13.0237 -6.08979 -4.33423 -12.8547 -6.41744 -4.43138 -12.7873 0.0299948 0.0568264 -11.9256 -0.149948 0.399745 -12.0258 -0.31629 0.748366 -12.1297 -0.487036 1.09275 -12.2403 -0.658004 1.43693 -12.3513 -0.806509 1.78035 -12.4927 -1.0038 2.09657 -12.6379 -1.20005 2.41288 -12.7843 -1.41432 2.73282 -12.8926 -1.6078 3.0619 -13.0121 -1.7879 3.40801 -13.1002 -1