<?xml version="1.0"?><VTKFile type="PolyData" version="0.1" byte_order="LittleEndian">
<PolyData>
<Piece NumberOfLines="48" NumberOfPoints="1411">
<PointData Scalars=" PointData">
<DataArray type="Float32" Name="time" NumberOfComponents="1" format="ascii" >
0 0.045502 0.091099 0.136792 0.18258 0.228465 0.274446 0.302082 0.348219 0.394453 0.422241 0.468633 0.515124 0.543067 0.589716 0.636466 0.664565 0.711475 0.758487 0.786743 0.833917 0.881194 0.909609 0.95705 1.00459 1.03317 1.08088 1.1287 1.15744 1.20542 1.25351 1.28242 1.33067 1.37904 1.40811 1.45665 1.5053 1.53454 1.58336 1.63229 1.6617 1.71081 1.76003 1.78961 1.83901 1.88851 1.91827 1.96796 2.01776 2.0477 2.09768 2.14778 2.1779 2.22818 2.27858 2.30888 2.35947 2.41017 2.44065 2.49154 2.54256 2.57322 2.62443 2.67575 2.7066 2.75812 2.80976 2.84081 2.89264 2.9446 2.97584 3.028 3.08028 3.11171 3.1642 3.21681 3.24844 3.30125 3.3542 3.38603 3.43918 3.49246 3.52449 3.57798 3.6316 3.66383 3.71767 3.77163 3.80407 3.85825 3.91257 3.94522 3.99975 4.05442 4.08729 4.14218 4.1972 4.23029 4.28554 4.34093 4.37423 4.42985 4.4856 4.51913 4.57511 4.63125 4.66499 4.72136 4.77787 4.81184 4.86859 4.92548 4.95969 5.01682 5.0741 5.10854 5.16606 5.22373 5.25841 5.31633 5.3744 5.40932 5.46764 5.52612 5.56129 5.62002 5.6789 5.71431 5.77346 5.83276 5.86842 5.92799 5.98771 6.02363 6.08362 6.14377 6.17994 6.24037 6.30096 6.33739 6.39825 6.45928 6.49598 6.55728 6.61876 6.65573 6.71749 6.77942 6.81666 6.87887 6.94126 6.97878 7 0.552389 0.677778 0.803952 0.930922 1.0587 1.18729 1.3167 1.44696 1.57806 1.71001 1.84284 1.97655 2.11116 2.24666 2.38309 2.4929 2.63101 2.77007 2.88201 3.02283 3.16463 3.27879 3.42241 3.56707 3.68354 3.83009 3.97771 4.09659 4.24618 4.39689 4.51827 4.67104 4.82498 4.94898 5.10506 5.26236 5.38909 5.54863 5.70945 5.83903 6.00219 6.16668 6.29924 6.46619 6.63453 6.77022 6.94113 7 0.673939 0.799328 0.925502 1.05247 1.18025 1.30884 1.43825 1.56851 1.69961 1.83156 1.96439 2.0981 2.23271 2.36821 2.50464 2.61445 2.75256 2.89162 3.00356 3.14438 3.28618 3.40034 3.54396 3.68862 3.80509 3.95164 4.09926 4.21814 4.36773 4.51844 4.63983 4.79259 4.94653 5.07053 5.22661 5.38391 5.51064 5.67018 5.831 5.96058 6.12374 6.28823 6.42079 6.58774 6.75608 6.89177 7 0.79617 0.921559 1.04773 1.1747 1.30248 1.43107 1.56048 1.69074 1.82184 1.95379 2.08662 2.22033 2.35494 2.49044 2.62687 2.73668 2.87479 3.01385 3.1258 3.26661 3.40841 3.52257 3.66619 3.81085 3.92732 4.07387 4.22149 4.34037 4.48996 4.64067 4.76206 4.91482 5.06876 5.19276 5.34884 5.50614 5.63287 5.79241 5.95323 6.08281 6.24597 6.41046 6.54303 6.70997 6.87831 7 0.919089 1.04448 1.17065 1.29762 1.4254 1.55399 1.6834 1.81366 1.94476 2.07671 2.20954 2.34325 2.47786 2.61336 2.74979 2.8596 2.99771 3.13677 3.24871 3.38953 3.53133 3.64549 3.78911 3.93377 4.05024 4.19679 4.34441 4.46329 4.61288 4.76359 4.88498 5.03774 5.19168 5.31568 5.47176 5.62906 5.75579 5.91533 6.07615 6.20573 6.36889 6.53338 6.66594 6.83289 7 1.04271 1.16809 1.29427 1.42124 1.54901 1.6776 1.80702 1.93727 2.06837 2.20033 2.33316 2.46687 2.60147 2.73698 2.87341 2.98322 3.12132 3.26039 3.37233 3.51314 3.65494 3.76911 3.91273 4.05738 4.17386 4.3204 4.46802 4.5869 4.73649 4.88721 5.00859 5.16136 5.31529 5.4393 5.59538 5.75268 5.87941 6.03895 6.19976 6.32935 6.4925 6.65699 6.78956 6.9565 7 1.16703 1.29242 1.41859 1.54556 1.67333 1.80192 1.93134 2.06159 2.19269 2.32465 2.45748 2.59119 2.72579 2.8613 2.99773 3.10754 3.24564 3.38471 3.49665 3.63746 3.77926 3.89343 4.03705 4.1817 4.29818 4.44472 4.59234 4.71122 4.86082 5.01153 5.13291 5.28568 5.43962 5.56362 5.7197 5.877 6.00373 6.16327 6.32408 6.45367 6.61682 6.78132 6.91388 7 1.29206 1.41745 1.54362 1.67059 1.79837 1.92696 2.05637 2.18663 2.31773 2.44968 2.58251 2.71622 2.85083 2.98633 3.12276 3.23257 3.37068 3.50974 3.62168 3.7625 3.9043 4.01846 4.16208 4.30674 4.42321 4.56976 4.71738 4.83626 4.98585 5.13656 5.25795 5.41071 5.56465 5.68865 5.84473 6.00203 6.12876 6.2883 6.44912 6.5787 6.74186 6.90635 7 1.41781 1.5432 1.66938 1.79635 1.92412 2.05271 2.18213 2.31238 2.44348 2.57544 2.70827 2.84198 2.97658 3.11209 3.24851 3.35832 3.49643 3.63549 3.74744 3.88825 4.03005 4.14422 4.28784 4.43249 4.54896 4.69551 4.84313 4.96201 5.1116 5.26231 5.3837 5.53647 5.6904 5.8144 5.97048 6.12778 6.25451 6.41405 6.57487 6.70445 6.86761 7 1.54429 1.66968 1.79586 1.92283 2.0506 2.17919 2.30861 2.43886 2.56996 2.70192 2.83475 2.96846 3.10306 3.23857 3.375 3.4848 3.62291 3.76198 3.87392 4.01473 4.15653 4.2707 4.41432 4.55897 4.67545 4.82199 4.96961 5.08849 5.23808 5.3888 5.51018 5.66295 5.81688 5.94088 6.09697 6.25427 6.381 6.54054 6.70135 6.83093 6.99409 7 1.67151 1.7969 1.92308 2.05005 2.17782 2.30641 2.43583 2.56608 2.69718 2.82914 2.96197 3.09568 3.23028 3.36579 3.50222 3.61202 3.75013 3.8892 4.00114 4.14195 4.28375 4.39792 4.54154 4.68619 4.80267 4.94921 5.09683 5.21571 5.3653 5.51602 5.6374 5.79017 5.9441 6.0681 6.22419 6.38149 6.50822 6.66776 6.82857 6.95815 7 1.79948 1.92487 2.05104 2.17801 2.30579 2.43438 2.5638 2.69405 2.82515 2.95711 3.08993 3.22364 3.35825 3.49376 3.63018 3.73999 3.8781 4.01716 4.12911 4.26992 4.41172 4.52588 4.66951 4.81416 4.93063 5.07718 5.2248 5.34368 5.49327 5.64398 5.76537 5.91814 6.07207 6.19607 6.35215 6.50945 6.63618 6.79572 6.95654 7 1.9282 2.05359 2.17977 2.30674 2.43451 2.5631 2.69252 2.82277 2.95387 3.08583 3.21866 3.35237 3.48697 3.62248 3.7589 3.86871 4.00682 4.14588 4.25783 4.39864 4.54044 4.65461 4.79823 4.94288 5.05935 5.2059 5.35352 5.4724 5.62199 5.7727 5.89409 6.04686 6.20079 6.32479 6.48087 6.63817 6.7649 6.92444 7 2.05769 2.18308 2.30925 2.43622 2.564 2.69259 2.822 2.95225 3.08335 3.21531 3.34814 3.48185 3.61645 3.75196 3.88839 3.9982 4.13631 4.27537 4.38731 4.52812 4.66993 4.78409 4.92771 5.07236 5.18884 5.33539 5.48301 5.60188 5.75148 5.90219 6.02357 6.17634 6.33028 6.45428 6.61036 6.76766 6.89439 7 2.18795 2.31334 2.43951 2.56648 2.69425 2.82284 2.95226 3.08251 3.21361 3.34557 3.4784 3.61211 3.74671 3.88222 4.01865 4.12846 4.26656 4.40563 4.51757 4.65838 4.80018 4.91435 5.05797 5.20262 5.3191 5.46564 5.61326 5.73214 5.88173 6.03245 6.15383 6.3066 6.46054 6.58454 6.74062 6.89792 7 2.31899 2.44438 2.57055 2.69752 2.82529 2.95388 3.0833 3.21355 3.34465 3.47661 3.60944 3.74315 3.87775 4.01326 4.14969 4.2595 4.39761 4.53667 4.64861 4.78942 4.93123 5.04539 5.18901 5.33366 5.45014 5.59668 5.7443 5.86318 6.01278 6.16349 6.28487 6.43764 6.59158 6.71558 6.87166 7 2.45082 2.57621 2.70238 2.82935 2.95713 3.08572 3.21513 3.34539 3.47649 3.60844 3.74127 3.87498 4.00959 4.14509 4.28152 4.39133 4.52944 4.6685 4.78044 4.92126 5.06306 5.17722 5.32084 5.4655 5.58197 5.72852 5.87614 5.99502 6.14461 6.29532 6.4167 6.56947 6.72341 6.84741 7 2.58345 2.70884 2.83502 2.96199 3.08976 3.21835 3.34777 3.47802 3.60912 3.74108 3.87391 4.00762 4.14222 4.27773 4.41415 4.52396 4.66207 4.80113 4.91308 5.05389 5.19569 5.30986 5.45348 5.59813 5.7146 5.86115 6.00877 6.12765 6.27724 6.42795 6.54934 6.70211 6.85604 6.98004 7 2.7169 2.84229 2.96846 3.09543 3.22321 3.3518 3.48121 3.61146 3.74256 3.87452 4.00735 4.14106 4.27566 4.41117 4.5476 4.65741 4.79552 4.93458 5.04652 5.18733 5.32914 5.4433 5.58692 5.73157 5.84805 5.9946 6.14221 6.26109 6.41069 6.5614 6.68278 6.83555 6.98949 7 2.85116 2.97655 3.10273 3.2297 3.35747 3.48606 3.61548 3.74573 3.87683 4.00879 4.14162 4.27533 4.40993 4.54544 4.68186 4.79167 4.92978 5.06884 5.18079 5.3216 5.4634 5.57757 5.72119 5.86584 5.98232 6.12886 6.27648 6.39536 6.54495 6.69566 6.81705 6.96982 7 2.98626 3.11165 3.23782 3.36479 3.49257 3.62116 3.75058 3.88083 4.01193 4.14389 4.27671 4.41042 4.54503 4.68054 4.81696 4.92677 5.06488 5.20394 5.31589 5.4567 5.5985 5.71266 5.85629 6.00094 6.11741 6.26396 6.41158 6.53046 6.68005 6.83076 6.95215 7 3.1222 3.24759 3.37376 3.50073 3.62851 3.7571 3.88651 4.01677 4.14787 4.27983 4.41265 4.54636 4.68097 4.81647 4.9529 5.06271 5.20082 5.33988 5.45183 5.59264 5.73444 5.8486 5.99223 6.13688 6.25335 6.3999 6.54752 6.6664 6.81599 6.9667 7 3.25899 3.38438 3.51056 3.63753 3.7653 3.89389 4.02331 4.15356 4.28466 4.41662 4.54945 4.68316 4.81776 4.95327 5.08969 5.1995 5.33761 5.47667 5.58862 5.72943 5.87123 5.9854 6.12902 6.27367 6.39014 6.53669 6.68431 6.80319 6.95278 7 3.39665 3.52204 3.64821 3.77518 3.90295 4.03154 4.16096 4.29121 4.42231 4.55427 4.6871 4.82081 4.95541 5.09092 5.22735 5.33716 5.47527 5.61433 5.72627 5.86708 6.00889 6.12305 6.26667 6.41132 6.5278 6.67434 6.82196 6.94084 7 3.53517 3.66056 3.78674 3.91371 4.04148 4.17007 4.29949 4.42974 4.56084 4.6928 4.82563 4.95934 5.09394 5.22945 5.36588 5.47568 5.61379 5.75286 5.8648 6.00561 6.14741 6.26158 6.4052 6.54985 6.66633 6.81287 6.96049 7 3.67459 3.79998 3.92615 4.05312 4.1809 4.30949 4.4389 4.56916 4.70026 4.83221 4.96504 5.09875 5.23336 5.36886 5.50529 5.6151 5.75321 5.89227 6.00421 6.14503 6.28683 6.40099 6.54461 6.68927 6.80574 6.95229 7 3.8149 3.94029 4.06646 4.19343 4.32121 4.4498 4.57921 4.70947 4.84057 4.97252 5.10535 5.23906 5.37367 5.50917 5.6456 5.75541 5.89352 6.03258 6.14452 6.28534 6.42714 6.5413 6.68492 6.82958 6.94605 7 3.95612 4.08151 4.20768 4.33465 4.46243 4.59102 4.72043 4.85068 4.98178 5.11374 5.24657 5.38028 5.51488 5.65039 5.78682 5.89663 6.03474 6.1738 6.28574 6.42655 6.56836 6.68252 6.82614 6.97079 7 4.09826 4.22365 4.34982 4.47679 4.60456 4.73315 4.86257 4.99282 5.12392 5.25588 5.38871 5.52242 5.65702 5.79253 5.92896 6.03877 6.17687 6.31594 6.42788 6.56869 6.71049 6.82466 6.96828 7 4.24133 4.36672 4.49289 4.61986 4.74763 4.87622 5.00564 5.13589 5.26699 5.39895 5.53178 5.66549 5.80009 5.9356 6.07203 6.18184 6.31995 6.45901 6.57095 6.71176 6.85357 6.96773 7 4.38534 4.51073 4.63691 4.76387 4.89165 5.02024 5.14966 5.27991 5.41101 5.54297 5.6758 5.8095 5.94411 6.07962 6.21604 6.32585 6.46396 6.60302 6.71497 6.85578 6.99758 7 4.53031 4.6557 4.78188 4.90885 5.03662 5.16521 5.29463 5.42488 5.55598 5.68794 5.82077 5.95448 6.08908 6.22459 6.36101 6.47082 6.60893 6.74799 6.85994 7 4.67625 4.80164 4.92782 5.05479 5.18256 5.31115 5.44057 5.57082 5.70192 5.83388 5.96671 6.10042 6.23502 6.37053 6.50696 6.61676 6.75487 6.89394 7 4.82318 4.94857 5.07474 5.20171 5.32949 5.45808 5.58749 5.71775 5.84885 5.9808 6.11363 6.24734 6.38195 6.51745 6.65388 6.76369 6.9018 7 4.9711 5.09649 5.22266 5.34963 5.47741 5.606 5.73541 5.86567 5.99677 6.12872 6.26155 6.39526 6.52987 6.66537 6.8018 6.91161 7 5.12003 5.24542 5.37159 5.49856 5.62634 5.75493 5.88434 6.0146 6.1457 6.27766 6.41048 6.54419 6.6788 6.8143 6.95073 7 5.26998 5.39537 5.52155 5.64852 5.77629 5.90488 6.0343 6.16455 6.29565 6.42761 6.56044 6.69415 6.82875 6.96426 7 5.42097 5.54636 5.67254 5.79951 5.92728 6.05587 6.18529 6.31554 6.44664 6.5786 6.71143 6.84514 6.97974 7 5.57302 5.69841 5.82458 5.95155 6.07933 6.20792 6.33733 6.46759 6.59869 6.73064 6.86347 6.99718 7 5.72613 5.85152 5.97769 6.10466 6.23244 6.36103 6.49044 6.6207 6.7518 6.88375 7 5.88032 6.00571 6.13189 6.25886 6.38663 6.51522 6.64464 6.77489 6.90599 7 6.03561 6.161 6.28718 6.41415 6.54192 6.67051 6.79993 6.93018 7 6.19202 6.3174 6.44358 6.57055 6.69832 6.82691 6.95633 7 6.34955 6.47494 6.60111 6.72808 6.85586 6.98445 7 6.50823 6.63362 6.75979 6.88676 7 6.66807 6.79346 6.91963 7 6.82909 6.95448 7 6.99131 7 
</DataArray>

</PointData>
<CellData Scalars=" CellData">
<DataArray type="Float32" Name="radius" NumberOfComponents="1" format="ascii" >
0.2 0.04 0.04 0.04 0.04 0.04 0.04 0.04 0.04 0.04 0.04 0.04 0.04 0.04 0.04 0.04 0.04 0.04 0.04 0.04 0.04 0.04 0.04 0.04 0.04 0.04 0.04 0.04 0.04 0.04 0.04 0.04 0.04 0.04 0.04 0.04 0.04 0.04 0.04 0.04 0.04 0.04 0.04 0.04 0.04 0.04 0.04 0.04 
</DataArray>
<DataArray type="Float32" Name="subType" NumberOfComponents="1" format="ascii" >
1 2 2 2 2 2 2 2 2 2 2 2 2 2 2 2 2 2 2 2 2 2 2 2 2 2 2 2 2 2 2 2 2 2 2 2 2 2 2 2 2 2 2 2 2 2 2 2 
</DataArray>
<DataArray type="Float32" Name="creationTime" NumberOfComponents="1" format="ascii" >
0 0.552389 0.673939 0.79617 0.919089 1.04271 1.16703 1.29206 1.41781 1.54429 1.67151 1.79948 1.9282 2.05769 2.18795 2.31899 2.45082 2.58345 2.7169 2.85116 2.98626 3.1222 3.25899 3.39665 3.53517 3.67459 3.8149 3.95612 4.09826 4.24133 4.38534 4.53031 4.67625 4.82318 4.9711 5.12003 5.26998 5.42097 5.57302 5.72613 5.88032 6.03561 6.19202 6.34955 6.50823 6.66807 6.82909 6.99131 
</DataArray>

</CellData>
<Points>
<DataArray type="Float32" Name="Coordinates" NumberOfComponents="3" format="ascii" >
0 0 -3 0.0160067 0.018553 -3.2488 0.0537667 0.0344865 -3.49541 0.100233 0.0656648 -3.73907 0.1066 0.0508581 -3.98855 0.120095 0.0346385 -4.23766 0.136723 0.00565682 -4.48542 0.141087 -0.015382 -4.63387 0.146237 -0.0488994 -4.88156 0.127419 -0.0743539 -5.12955 0.12359 -0.0907323 -5.2786 0.120363 -0.126858 -5.52596 0.133736 -0.115462 -5.77534 0.129206 -0.113963 -5.92526 0.12726 -0.108211 -6.17519 0.136605 -0.0833798 -6.42378 0.142483 -0.0682817 -6.5729 0.134005 -0.0281008 -6.8195 0.113672 -0.00353362 -7.06746 0.10082 0.0140671 -7.21587 0.079752 0.0377494 -7.46385 0.0947396 0.066106 -7.71178 0.0954034 0.0765546 -7.86142 0.094698 0.0747939 -8.11141 0.0824614 0.078556 -8.36108 0.067899 0.0803419 -8.51036 0.0761336 0.0772672 -8.76021 0.0815466 0.0740999 -9.01013 0.0907757 0.0710203 -9.15982 0.0983889 0.0883576 -9.4091 0.0890027 0.120374 -9.65686 0.0840221 0.139225 -9.80559 0.0879943 0.160678 -10.0546 0.0894546 0.179231 -10.3039 0.0815877 0.198936 -10.4524 0.071711 0.223094 -10.7011 0.0514461 0.235457 -10.9499 0.0413874 0.240593 -11.0995 0.0612524 0.256072 -11.3482 0.0533958 0.275359 -11.5974 0.0573681 0.262169 -11.7467 0.0539364 0.242187 -11.9959 0.0505608 0.225421 -12.2453 0.0467997 0.213155 -12.3948 0.0520454 0.18643 -12.6433 0.0483376 0.173973 -12.893 0.0495948 0.170217 -13.0429 0.0515815 0.164446 -13.2928 0.0543861 0.169977 -13.5427 0.049369 0.181429 -13.6922 0.0344365 0.194997 -13.9414 0.0197367 0.208567 -14.1906 0.00829522 0.219522 -14.3398 -0.0170395 0.223813 -14.5884 -0.0308718 0.225698 -14.8381 -0.0449065 0.210697 -14.9866 -0.0673367 0.184311 -15.2342 -0.0777033 0.171727 -15.4837 -0.0841693 0.171454 -15.6336 -0.0833936 0.168112 -15.8835 -0.0912386 0.143715 -16.1322 -0.0886255 0.127735 -16.2813 -0.0441194 0.0915849 -16.5247 -0.00255322 0.0610184 -16.7693 0.0214049 0.0447437 -16.9165 0.0545303 0.00773919 -17.1615 0.085354 -0.0340142 -17.406 0.10742 -0.0604926 -17.552 0.131345 -0.0905257 -17.7991 0.19766 -0.144865 -18.0339 0.252926 -0.163601 -18.1721 0.346073 -0.202829 -18.4007 0.443271 -0.238265 -18.6283 0.498766 -0.250826 -18.7671 0.580924 -0.283173 -19.001 0.63327 -0.312204 -19.2437 0.657564 -0.327528 -19.391 0.700782 -0.320843 -19.6371 0.732801 -0.314293 -19.885 0.75388 -0.31318 -20.0335 0.786934 -0.284806 -20.2796 0.810328 -0.269602 -20.5281 0.823055 -0.260956 -20.6773 0.839249 -0.255839 -20.9267 0.856201 -0.249501 -21.1761 0.870161 -0.238667 -21.325 0.892177 -0.220915 -21.5734 0.903181 -0.203444 -21.8226 0.902247 -0.18511 -21.9714 0.89349 -0.188651 -22.2213 0.882387 -0.199902 -22.4708 0.877936 -0.20211 -22.6207 0.862085 -0.205025 -22.8702 0.841813 -0.205149 -23.1193 0.826925 -0.201862 -23.2686 0.808309 -0.239142 -23.5151 0.774383 -0.264314 -23.7615 0.754484 -0.276883 -23.9096 0.727141 -0.293725 -24.1575 0.733113 -0.329496 -24.4049 0.73762 -0.351718 -24.5532 0.749527 -0.374321 -24.8019 0.756826 -0.394687 -25.0509 0.761311 -0.414183 -25.1996 0.800908 -0.427961 -25.446 0.830751 -0.457354 -25.6925 0.849633 -0.475263 -25.8402 0.876115 -0.498811 -26.0877 0.878 -0.529333 -26.3358 0.878322 -0.547603 -26.4847 0.892823 -0.523397 -26.7331 0.922184 -0.520067 -26.9814 0.944508 -0.518179 -27.1297 0.987943 -0.55045 -27.3737 1.03015 -0.580983 -27.6183 1.05357 -0.589116 -27.7662 1.10077 -0.610555 -28.0108 1.14603 -0.624776 -28.2562 1.16808 -0.632757 -28.4044 1.18979 -0.6329 -28.6534 1.22387 -0.578918 -28.8951 1.24239 -0.546138 -29.0403 1.25482 -0.490618 -29.2838 1.28042 -0.448563 -29.5289 1.29173 -0.427941 -29.677 1.30319 -0.388631 -29.9237 1.30883 -0.356717 -30.1715 1.31373 -0.342546 -30.3208 1.31634 -0.334195 -30.5706 1.3204 -0.328881 -30.8205 1.32505 -0.322462 -30.9703 1.35803 -0.286051 -31.2155 1.383 -0.269057 -31.4636 1.39113 -0.237181 -31.61 1.4056 -0.191349 -31.8553 1.42659 -0.136328 -32.0983 1.43918 -0.103338 -32.2441 1.45897 -0.0466266 -32.4867 1.4648 0.000822248 -32.7321 1.47181 0.0270781 -32.8796 1.47134 0.0655836 -33.1267 1.39395 0.14245 -33.3516 1.34718 0.187383 -33.4869 1.2827 0.248504 -33.7205 1.23962 0.278289 -33.965 1.21619 0.29423 -34.1123 1.211 0.332902 -34.3592 1.19381 0.346864 -34.6083 1.19605 0.354323 -34.7581 1.20501 0.368914 -35.0075 1.2211 0.379363 -35.2567 1.23105 0.384298 -35.4063 1.23532 0.385933 -35.4909 0.1066 0.0508581 -3.98855 0.254273 0.230117 -4.08107 0.409408 0.410017 -4.15897 0.549256 0.570261 -4.29036 0.697881 0.682909 -4.45686 0.877431 0.806799 -4.57898 0.991831 0.977758 -4.72106 1.08784 1.15935 -4.86356 1.17447 1.3177 -5.03653 1.25676 1.4675 -5.21899 1.37578 1.54557 -5.4245 1.46347 1.62266 -5.64557 1.54515 1.63445 -5.88155 1.59867 1.65268 -6.12508 1.69014 1.73559 -6.34247 1.75763 1.78906 -6.52298 1.86092 1.82328 -6.74807 1.97693 1.83526 -6.96919 2.0441 1.87206 -7.15395 2.14126 1.85169 -7.38339 2.25319 1.76803 -7.59069 2.34536 1.69962 -7.75447 2.51131 1.64143 -7.93217 2.65299 1.61025 -8.13577 2.768 1.57773 -8.29613 2.90872 1.55264 -8.50124 3.04738 1.52655 -8.70762 3.18653 1.51719 -8.85096 3.35193 1.51321 -9.03839 3.53341 1.49878 -9.20972 3.68131 1.48977 -9.34406 3.8653 1.50079 -9.51295 4.05645 1.56608 -9.66026 4.17449 1.63588 -9.80585 4.31916 1.72434 -9.98954 4.45538 1.79841 -10.1856 4.56589 1.85666 -10.3418 4.72108 1.93135 -10.523 4.88224 1.97625 -10.7088 5.00578 2.00701 -10.8631 5.14735 2.02138 -11.0686 5.30341 2.04515 -11.2625 5.40854 2.03191 -11.4321 5.54593 2.04253 -11.6407 5.6785 2.04385 -11.8526 5.81433 2.04591 -11.9994 5.99803 2.08055 -12.1654 6.05517 2.08444 -12.2291 0.141087 -0.015382 -4.63387 0.35577 0.0603283 -4.73721 0.578343 0.117168 -4.83585 0.783953 0.234172 -4.91669 0.974788 0.378881 -4.98839 1.17638 0.504513 -5.06636 1.37084 0.660624 -5.08401 1.56124 0.821979 -5.06943 1.75003 0.984761 -5.05037 1.9335 1.15303 -5.02748 2.09666 1.3402 -4.99836 2.26029 1.52679 -4.96829 2.4322 1.70626 -4.94113 2.61627 1.87328 -4.91416 2.82134 1.99761 -4.84356 2.98889 2.09027 -4.78574 3.20376 2.18137 -4.69613 3.40574 2.29321 -4.60024 3.56397 2.38801 -4.52292 3.76527 2.52501 -4.46627 3.97705 2.65779 -4.47068 4.14423 2.76729 -4.47839 4.3633 2.88381 -4.50887 4.57988 3.00645 -4.53244 4.74655 3.11484 -4.5542 4.95867 3.2371 -4.50364 5.15752 3.34853 -4.40096 5.32302 3.43848 -4.33375 5.5234 3.56441 -4.25318 5.71402 3.70408 -4.17161 5.8696 3.79994 -4.09034 6.07407 3.92261 -4.01521 6.29068 4.03503 -3.96097 6.4612 4.13834 -3.94511 6.66949 4.27638 -3.95284 6.87726 4.41532 -3.95782 7.06252 4.48042 -3.9958 7.29534 4.56348 -4.03314 7.52851 4.6467 -4.06789 7.71521 4.71258 -4.0962 7.94488 4.80054 -4.14109 8.16915 4.89925 -4.19068 8.35099 4.96351 -4.24363 8.57994 5.04439 -4.30316 8.82403 5.09089 -4.27564 9.01623 5.14609 -4.27231 9.16624 5.19562 -4.25866 0.12359 -0.0907323 -5.2786 0.103787 -0.337946 -5.31011 0.022825 -0.574276 -5.31979 -0.039626 -0.815885 -5.33477 -0.0924097 -1.05991 -5.3476 -0.21181 -1.27309 -5.40052 -0.320197 -1.4954 -5.43696 -0.41751 -1.72368 -5.46731 -0.475723 -1.96376 -5.50567 -0.543912 -2.19903 -5.55565 -0.633259 -2.42818 -5.60048 -0.72174 -2.65776 -5.6448 -0.796336 -2.89294 -5.68512 -0.873656 -3.12707 -5.72636 -0.94551 -3.36456 -5.75699 -1.01646 -3.55139 -5.76473 -1.11527 -3.78045 -5.78115 -1.21508 -4.00867 -5.80245 -1.29789 -4.19011 -5.8173 -1.41196 -4.41114 -5.8425 -1.55391 -4.61691 -5.83953 -1.6697 -4.77954 -5.82758 -1.82907 -4.97121 -5.84668 -1.98229 -5.16038 -5.9036 -2.10509 -5.31153 -5.94911 -2.25465 -5.5033 -6.00706 -2.42795 -5.65624 -6.10232 -2.55755 -5.78651 -6.18127 -2.72056 -5.94864 -6.27946 -2.86536 -6.0975 -6.41866 -2.99021 -6.21063 -6.52643 -3.14888 -6.34846 -6.6618 -3.32026 -6.46867 -6.79848 -3.45769 -6.56425 -6.90792 -3.64427 -6.67603 -7.03117 -3.82279 -6.76934 -7.17924 -3.95974 -6.87294 -7.28178 -4.1274 -6.99554 -7.4209 -4.30406 -7.13134 -7.53426 -4.45526 -7.23793 -7.61029 -4.6499 -7.38734 -7.65814 -4.84817 -7.53066 -7.7096 -4.99849 -7.65429 -7.75564 -5.15571 -7.82366 -7.85101 -5.29618 -8.00587 -7.94881 -5.40509 -8.1427 -7.98897 0.129206 -0.113963 -5.92526 -0.041795 0.0480359 -6.00902 -0.224033 0.20057 -6.08662 -0.40415 0.35427 -6.16684 -0.600835 0.495355 -6.22936 -0.773212 0.656339 -6.31225 -0.946033 0.831846 -6.35503 -1.10695 1.01342 -6.41533 -1.25543 1.20258 -6.48369 -1.40272 1.38773 -6.56447 -1.54561 1.57691 -6.6438 -1.67879 1.77196 -6.72576 -1.77847 1.95709 -6.86101 -1.89661 2.10022 -7.02851 -2.05013 2.23685 -7.17086 -2.17303 2.34619 -7.28462 -2.36025 2.45153 -7.41249 -2.54939 2.53077 -7.55548 -2.70785 2.59742 -7.6577 -2.893 2.70436 -7.78724 -3.07552 2.81632 -7.9163 -3.20576 2.91223 -8.03393 -3.37488 3.01206 -8.18863 -3.52416 3.05795 -8.38385 -3.62698 3.06813 -8.55509 -3.74317 3.02523 -8.77226 -3.86711 2.96868 -8.98187 -3.97558 2.92511 -9.14416 -4.09709 2.87871 -9.35766 -4.21543 2.83336 -9.57316 -4.29751 2.75813 -9.7393 -4.35422 2.67561 -9.96837 -4.40261 2.58535 -10.1964 -4.45668 2.54048 -10.3837 -4.53171 2.49022 -10.6168 -4.5849 2.48643 -10.8611 -4.65478 2.48723 -11.0484 -4.79211 2.49663 -11.2571 -4.91785 2.52125 -11.4718 -5.00174 2.55555 -11.6501 -5.11307 2.57866 -11.8727 -5.21494 2.57452 -12.101 -5.31328 2.54406 -12.2725 -5.43654 2.45219 -12.4696 -5.55848 2.36112 -12.6657 0.142483 -0.0682817 -6.5729 0.229806 -0.273457 -6.68594 0.351756 -0.472203 -6.77609 0.458904 -0.668478 -6.88788 0.572462 -0.865353 -6.99201 0.684572 -1.0611 -7.09979 0.795413 -1.25849 -7.20586 0.902593 -1.44623 -7.33142 0.969175 -1.62817 -7.48942 1.01046 -1.8282 -7.63359 1.02991 -2.05672 -7.73309 1.02153 -2.29679 -7.80233 1.00931 -2.53781 -7.86762 1.00486 -2.77877 -7.9341 0.994368 -3.01604 -8.01215 0.989936 -3.20587 -8.07494 0.956767 -3.44633 -8.13478 0.853253 -3.6651 -8.19742 0.757646 -3.8407 -8.19243 0.629217 -4.04998 -8.23942 0.483618 -4.25085 -8.27029 0.372425 -4.41251 -8.30904 0.228951 -4.61173 -8.3562 0.0900761 -4.81944 -8.34762 -0.0185255 -4.98688 -8.36063 -0.166858 -5.17701 -8.42655 -0.297928 -5.37063 -8.51505 -0.40841 -5.53204 -8.5568 -0.517802 -5.75473 -8.58749 -0.633403 -5.97021 -8.63948 -0.734371 -6.1302 -8.70436 -0.860889 -6.33181 -8.78081 -0.957498 -6.53354 -8.89249 -1.05438 -6.69826 -8.95151 -1.11235 -6.90714 -9.07604 -1.21778 -7.10893 -9.17932 -1.30628 -7.26052 -9.27517 -1.43293 -7.43738 -9.39837 -1.57973 -7.60065 -9.51792 -1.69719 -7.73014 -9.61506 -1.84318 -7.89516 -9.7332 -1.97196 -8.03749 -9.89338 -2.06976 -8.15056 -10.0262 -2.2402 -8.25617 -10.1756 -2.29088 -8.2832 -10.2055 0.10082 0.0140671 -7.21587 0.0437644 0.256476 -7.23784 -0.0148296 0.498446 -7.26058 -0.0942112 0.729828 -7.31217 -0.156416 0.967658 -7.35763 -0.231359 1.20293 -7.39674 -0.287922 1.44482 -7.42486 -0.339127 1.68828 -7.4495 -0.39877 1.93105 -7.45125 -0.457539 2.17404 -7.45015 -0.549603 2.40343 -7.48767 -0.61807 2.63484 -7.55294 -0.663054 2.88018 -7.56979 -0.715854 3.12419 -7.58297 -0.76236 3.36742 -7.61722 -0.776331 3.55716 -7.67889 -0.816812 3.78436 -7.77503 -0.878019 3.99933 -7.88702 -0.938684 4.18013 -7.94729 -1.01958 4.41661 -7.95324 -1.0901 4.65536 -7.97607 -1.15435 4.84476 -7.97644 -1.23363 5.08185 -7.97809 -1.33948 5.30794 -7.96469 -1.43599 5.48309 -7.96166 -1.55232 5.70437 -7.96142 -1.71437 5.89248 -7.93212 -1.84545 6.04097 -7.90439 -2.00785 6.22786 -7.8698 -2.15247 6.42716 -7.82661 -2.26886 6.58641 -7.79357 -2.40685 6.78567 -7.73228 -2.54231 6.98732 -7.67323 -2.6517 7.14277 -7.61104 -2.75181 7.35807 -7.53278 -2.84312 7.58719 -7.49195 -2.91895 7.77166 -7.47706 -3.04464 7.98683 -7.49706 -3.1602 8.20705 -7.52257 -3.25955 8.37972 -7.54033 -3.37046 8.60103 -7.57525 -3.50147 8.80999 -7.61614 -3.61301 8.97144 -7.65481 -3.68557 9.07472 -7.6825 0.0954034 0.0765546 -7.86142 0.0586988 -0.137898 -7.98456 0.0203981 -0.351159 -8.10927 -0.0381928 -0.584655 -8.1767 -0.157939 -0.800782 -8.21478 -0.259068 -1.02275 -8.26957 -0.371056 -1.22089 -8.37302 -0.473871 -1.42447 -8.47541 -0.581041 -1.63859 -8.54729 -0.662166 -1.87404 -8.56923 -0.743383 -2.10953 -8.5904 -0.782558 -2.35643 -8.59307 -0.817041 -2.6037 -8.58018 -0.857858 -2.84964 -8.56151 -0.862876 -3.09159 -8.49879 -0.860019 -3.28611 -8.45238 -0.899442 -3.51514 -8.36023 -0.97558 -3.73455 -8.26769 -1.05287 -3.89144 -8.17067 -1.12753 -4.09883 -8.05271 -1.24816 -4.27102 -7.91744 -1.34723 -4.40792 -7.81046 -1.40188 -4.60632 -7.66852 -1.45618 -4.80483 -7.52658 -1.50405 -4.96553 -7.41757 -1.56842 -5.14395 -7.25471 -1.63039 -5.31479 -7.08304 -1.68708 -5.44954 -6.94654 -1.75425 -5.64435 -6.805 -1.81799 -5.8391 -6.66178 -1.89932 -6.01128 -6.60062 -1.97647 -6.21901 -6.48488 -2.04017 -6.41888 -6.34889 -2.09572 -6.58036 -6.24478 -2.17518 -6.76231 -6.09287 -2.17081 -6.97129 -5.95572 -2.16465 -7.14463 -5.85615 -2.15714 -7.35812 -5.72628 -2.15724 -7.55173 -5.56811 -2.12194 -7.70784 -5.44819 -2.09924 -7.91141 -5.30486 -2.05706 -8.11101 -5.16035 -2.03266 -8.22301 -5.07751 0.067899 0.0803419 -8.51036 -0.048605 -0.125541 -8.59123 -0.125108 -0.354641 -8.65573 -0.197104 -0.578047 -8.74179 -0.220775 -0.811672 -8.82758 -0.274144 -1.03488 -8.92671 -0.326174 -1.25905 -9.0244 -0.377115 -1.48328 -9.12252 -0.406499 -1.71334 -9.21583 -0.472691 -1.93035 -9.32083 -0.512115 -2.14328 -9.44576 -0.587485 -2.35395 -9.55728 -0.673245 -2.53079 -9.71179 -0.756525 -2.70273 -9.87304 -0.786816 -2.82217 -10.0906 -0.813857 -2.91532 -10.2655 -0.860123 -3.03651 -10.4792 -0.907305 -3.15362 -10.695 -0.939791 -3.24595 -10.8694 -0.989364 -3.37184 -11.0796 -1.03889 -3.50886 -11.2827 -1.08608 -3.61478 -11.4457 -1.14378 -3.74134 -11.6534 -1.17672 -3.85882 -11.8716 -1.20712 -3.93842 -12.0526 -1.20413 -4.07881 -12.2594 -1.20161 -4.21912 -12.4663 -1.25288 -4.34099 -12.6164 -1.31684 -4.46399 -12.8244 -1.38094 -4.56503 -13.0439 -1.41562 -4.63067 -13.2296 -1.44806 -4.64398 -13.4772 -1.45927 -4.63671 -13.7268 -1.46449 -4.61367 -13.9254 -1.47323 -4.58537 -14.1736 -1.49534 -4.55183 -14.4204 -1.4814 -4.5408 -14.6196 -1.4502 -4.52495 -14.8671 -1.40887 -4.52239 -15.1137 -1.37929 -4.53169 -15.3113 -1.33877 -4.54578 -15.5576 -1.29998 -4.55715 -15.7548 0.0907757 0.0710203 -9.15982 -0.067188 -0.0894366 -9.26845 -0.229742 -0.245317 -9.37697 -0.408537 -0.39842 -9.46119 -0.614344 -0.513745 -9.54391 -0.796559 -0.650525 -9.64681 -0.99219 -0.79 -9.71592 -1.18422 -0.933591 -9.78667 -1.38235 -1.06003 -9.87187 -1.56333 -1.18601 -9.98965 -1.7399 -1.31117 -10.1148 -1.91578 -1.43908 -10.2381 -2.08662 -1.56392 -10.3712 -2.20013 -1.69809 -10.549 -2.29734 -1.8612 -10.7117 -2.37817 -1.95695 -10.8675 -2.49676 -2.06348 -11.0601 -2.62293 -2.20242 -11.2253 -2.71069 -2.32037 -11.3609 -2.81323 -2.46899 -11.5338 -2.95905 -2.60138 -11.6878 -3.07636 -2.70745 -11.8102 -3.21529 -2.83768 -11.9722 -3.34282 -2.99699 -12.1166 -3.45015 -3.11799 -12.2342 -3.53749 -3.25052 -12.4274 -3.63662 -3.37036 -12.6231 -3.71321 -3.46984 -12.7788 -3.76383 -3.60321 -12.9841 -3.84939 -3.75692 -13.1617 -3.94011 -3.85843 -13.3083 -4.01735 -3.95967 -13.5234 -4.09303 -4.06148 -13.7388 -4.1508 -4.14108 -13.913 -4.21255 -4.23536 -14.1361 -4.26806 -4.34019 -14.3562 -4.3088 -4.42699 -14.5317 -4.35172 -4.49151 -14.7694 -4.4247 -4.56085 -14.9982 -4.48446 -4.61486 -15.1813 -4.54832 -4.75993 -15.3746 -4.55043 -4.76524 -15.3816 0.0840221 0.139225 -9.80559 0.314121 0.178534 -9.89508 0.544503 0.226048 -9.97974 0.766999 0.261257 -10.0882 0.984396 0.297419 -10.2062 1.21136 0.348665 -10.2976 1.44177 0.358869 -10.3941 1.66993 0.341268 -10.4948 1.87059 0.287426 -10.6338 2.09071 0.23152 -10.7383 2.30896 0.179132 -10.8484 2.53238 0.129501 -10.949 2.75725 0.0601836 -11.0335 2.99741 0.0485363 -11.1019 3.23965 0.0316758 -11.1614 3.43533 0.012589 -11.198 3.68284 -0.00981889 -11.2252 3.92567 -0.0456326 -11.2726 4.11287 -0.0940564 -11.3237 4.31816 -0.152797 -11.4538 4.52874 -0.201316 -11.5795 4.70867 -0.256991 -11.6467 4.9082 -0.391008 -11.7155 5.15743 -0.402368 -11.7314 5.35463 -0.372743 -11.7467 5.59365 -0.304338 -11.773 5.82167 -0.218022 -11.8283 6.00261 -0.153318 -11.8838 6.19441 -0.0145596 -11.9641 6.34976 0.162936 -12.047 6.4605 0.312151 -12.1209 6.60339 0.500282 -12.2027 6.74961 0.687525 -12.2805 6.82632 0.847469 -12.3729 6.97144 1.00651 -12.5 7.07799 1.15977 -12.6663 7.16311 1.28237 -12.7994 7.30227 1.40522 -12.9669 7.44156 1.55376 -13.1119 7.55452 1.67084 -13.2283 7.589 1.70987 -13.266 0.0815877 0.198936 -10.4524 0.278658 0.327331 -10.5372 0.5084 0.421095 -10.5676 0.733844 0.5283 -10.5811 0.957769 0.621321 -10.642 1.184 0.710657 -10.6998 1.40302 0.801827 -10.7786 1.62442 0.876402 -10.8676 1.83613 0.953693 -10.9758 2.04667 1.05489 -11.0649 2.22937 1.20766 -11.1409 2.44208 1.33462 -11.1746 2.66114 1.44917 -11.2119 2.87159 1.58038 -11.2434 3.08058 1.71479 -11.2709 3.24876 1.82302 -11.2699 3.46231 1.94521 -11.3143 3.6757 2.06727 -11.3598 3.84133 2.1745 -11.3924 4.04851 2.31158 -11.4205 4.26108 2.43483 -11.4665 4.4236 2.55086 -11.4777 4.60137 2.72581 -11.4949 4.79149 2.8862 -11.5198 4.93277 3.01909 -11.5686 5.10931 3.18531 -11.6295 5.27182 3.36219 -11.6988 5.39742 3.51254 -11.7391 5.55014 3.70416 -11.7887 5.68561 3.89707 -11.8719 5.78466 4.03225 -11.9811 5.91505 4.20747 -12.1027 6.04591 4.39474 -12.2042 6.1952 4.51735 -12.256 6.39817 4.64656 -12.3239 6.60035 4.77627 -12.3931 6.76644 4.85272 -12.4742 6.97734 4.94826 -12.5685 7.19715 5.00561 -12.6729 7.25632 5.02009 -12.7013 0.0413874 0.240593 -11.0995 -0.0949005 0.442004 -11.1575 -0.182202 0.657345 -11.2497 -0.251516 0.859378 -11.3796 -0.281665 1.06044 -11.5251 -0.320998 1.24144 -11.693 -0.278434 1.41179 -11.871 -0.263565 1.58374 -12.0518 -0.22375 1.76974 -12.2141 -0.164622 1.97263 -12.3476 -0.108514 2.17669 -12.4807 -0.0605859 2.35601 -12.6482 0.0126384 2.52107 -12.8211 0.130997 2.66142 -12.9908 0.258268 2.80414 -13.1518 0.365196 2.91842 -13.2763 0.465495 3.11665 -13.391 0.569755 3.31811 -13.4961 0.641539 3.48595 -13.5778 0.746306 3.69074 -13.6757 0.855406 3.88985 -13.7803 0.942533 4.04893 -13.8646 1.03129 4.25204 -13.9802 1.1299 4.44926 -14.098 1.21488 4.57584 -14.2275 1.27802 4.75053 -14.3948 1.34288 4.91298 -14.5734 1.39462 5.0456 -14.7139 1.45712 5.20909 -14.8924 1.51629 5.37 -15.0744 1