<?xml version="1.0"?><VTKFile type="PolyData" version="0.1" byte_order="LittleEndian">
<PolyData>
<Piece NumberOfLines="5" NumberOfPoints="39">
<PointData Scalars=" PointData">
<DataArray type="Float32" Name="time" NumberOfComponents="1" format="ascii" >
0 0.045502 0.091099 0.136792 0.18258 0.228465 0.274446 0.302082 0.348219 0.394453 0.422241 0.468633 0.515124 0.543067 0.589716 0.636466 0.664565 0.711475 0.758487 0.786743 0.833917 0.881194 0.909609 0.95705 1 0.552389 0.677778 0.803952 0.930922 1 0.673939 0.799328 0.925502 1 0.79617 0.921559 1 0.919089 1 
</DataArray>

</PointData>
<CellData Scalars=" CellData">
<DataArray type="Float32" Name="radius" NumberOfComponents="1" format="ascii" >
0.2 0.04 0.04 0.04 0.04 
</DataArray>
<DataArray type="Float32" Name="subType" NumberOfComponents="1" format="ascii" >
1 2 2 2 2 
</DataArray>
<DataArray type="Float32" Name="creationTime" NumberOfComponents="1" format="ascii" >
0 0.552389 0.673939 0.79617 0.919089 
</DataArray>

</CellData>
<Points>
<DataArray type="Float32" Name="Coordinates" NumberOfComponents="3" format="ascii" >
0 0 -3 0.0160067 0.018553 -3.2488 0.0537667 0.0344865 -3.49541 0.100233 0.0656648 -3.73907 0.1066 0.0508581 -3.98855 0.120095 0.0346385 -4.23766 0.136723 0.00565682 -4.48542 0.141087 -0.015382 -4.63387 0.146237 -0.0488994 -4.88156 0.127419 -0.0743539 -5.12955 0.12359 -0.0907323 -5.2786 0.120363 -0.126858 -5.52596 0.133736 -0.115462 -5.77534 0.129206 -0.113963 -5.92526 0.12726 -0.108211 -6.17519 0.136605 -0.0833798 -6.42378 0.142483 -0.0682817 -6.5729 0.134005 -0.0281008 -6.8195 0.113672 -0.00353362 -7.06746 0.10082 0.0140671 -7.21587 0.079752 0.0377494 -7.46385 0.0947396 0.066106 -7.71178 0.0954034 0.0765546 -7.86142 0.094698 0.0747939 -8.11141 0.0831872 0.0779229 -8.33696 0.1066 0.0508581 -3.98855 0.254273 0.230117 -4.08107 0.409408 0.410017 -4.15897 0.549256 0.570261 -4.29036 0.626023 0.647758 -4.3705 0.141087 -0.015382 -4.63387 0.35577 0.0603283 -4.73721 0.578343 0.117168 -4.83585 0.705222 0.179636 -4.8755 0.12359 -0.0907323 -5.2786 0.103787 -0.337946 -5.31011 0.0957527 -0.491835 -5.33172 0.129206 -0.113963 -5.92526 0.0179606 -0.00908709 -5.97729 
</DataArray>
</Points>
<Lines>
<DataArray type="Int32" Name="connectivity" NumberOfComponents="1" format="ascii" >
0 1 2 3 4 5 6 7 8 9 10 11 12 13 14 15 16 17 18 19 20 21 22 23 24 25 26 27 28 29 30 31 32 33 34 35 36 37 38 
</DataArray>
<DataArray type="Int32" Name="offsets" NumberOfComponents="1" format="ascii" >
25 30 34 37 39 
</DataArray>

</Lines>
</Piece>
</PolyData>
</VTKFile>
