<?xml version="1.0"?>
<VTKFile type="PolyData" version="0.1" byte_order="LittleEndian">
  <PolyData>
    <Piece NumberOfLines="100" NumberOfPoints="101">
      <PointData Scalars="Sn">
        <DataArray type="Float32" Name="Sn" NumberOfComponents="1" format="ascii">
          0.761507 0.760797 0.760192 0.759685 0.759268 0.75893 0.758663 0.758454 0.758293 0.758173 0.758083 0.758018
          0.757971 0.757938 0.757915 0.757899 0.757889 0.757882 0.757877 0.757874 0.757872 0.75787 0.75787 0.757869
          0.757869 0.757869 0.757868 0.757868 0.757868 0.757868 0.757868 0.757868 0.757868 0.757868 0.757868 0.757868
          0.757868 0.757868 0.757868 0.757868 0.757868 0.757868 0.757868 0.757868 0.757868 0.757868 0.757868 0.757868
          0.757868 0.757868 0.757868 0.757868 0.757868 0.757868 0.757868 0.757868 0.757868 0.757868 0.757868 0.757868
          0.757868 0.757868 0.757868 0.757868 0.757868 0.757868 0.757868 0.757868 0.757868 0.757868 0.757868 0.757868
          0.757868 0.757868 0.757868 0.757868 0.757868 0.757868 0.757867 0.757867 0.757866 0.757865 0.757863 0.757859
          0.757854 0.757846 0.757834 0.757815 0.757788 0.757747 0.757689 0.757606 0.757491 0.757333 0.75712 0.756841
          0.75648 0.756025 0.755464 0.754786 0.753987
        </DataArray>
        <DataArray type="Float32" Name="Sw" NumberOfComponents="1" format="ascii">
          0.238493 0.239203 0.239808 0.240315 0.240732 0.24107 0.241338 0.241546 0.241707 0.241827 0.241917 0.241982
          0.242029 0.242062 0.242085 0.242101 0.242111 0.242118 0.242123 0.242126 0.242128 0.24213 0.24213 0.242131
          0.242131 0.242131 0.242132 0.242132 0.242132 0.242132 0.242132 0.242132 0.242132 0.242132 0.242132 0.242132
          0.242132 0.242132 0.242132 0.242132 0.242132 0.242132 0.242132 0.242132 0.242132 0.242132 0.242132 0.242132
          0.242132 0.242132 0.242132 0.242132 0.242132 0.242132 0.242132 0.242132 0.242132 0.242132 0.242132 0.242132
          0.242132 0.242132 0.242132 0.242132 0.242132 0.242132 0.242132 0.242132 0.242132 0.242132 0.242132 0.242132
          0.242132 0.242132 0.242132 0.242132 0.242132 0.242132 0.242133 0.242133 0.242134 0.242135 0.242137 0.242141
          0.242146 0.242154 0.242166 0.242185 0.242212 0.242253 0.242311 0.242394 0.242509 0.242667 0.242879 0.243159
          0.24352 0.243975 0.244536 0.245214 0.246013
        </DataArray>
        <DataArray type="Float32" Name="pn" NumberOfComponents="1" format="ascii">
          100000 100000 100000 100000 100000 100000 100000 100000 100000 100000 100000 100000
          100000 100000 100000 100000 100000 100000 100000 100000 100000 100000 100000 100000
          100000 100000 100000 100000 100000 100000 100000 100000 100000 100000 100000 100000
          100000 100000 100000 100000 100000 100000 100000 100000 100000 100000 100000 100000
          100000 100000 100000 100000 100000 100000 100000 100000 100000 100000 100000 100000
          100000 100000 100000 100000 100000 100000 100000 100000 100000 100000 100000 100000
          100000 100000 100000 100000 100000 100000 100000 100000 100000 100000 100000 100000
          100000 100000 100000 100000 100000 100000 100000 100000 100000 100000 100000 100000
          100000 100000 100000 100000 100000
        </DataArray>
        <DataArray type="Float32" Name="pw" NumberOfComponents="1" format="ascii">
          89735.7 89826.4 89902.9 89966.5 90018.4 90060.1 90093.1 90118.7 90138.3 90153 90163.9 90171.8
          90177.5 90181.5 90184.3 90186.2 90187.5 90188.4 90189 90189.3 90189.6 90189.7 90189.8 90189.9
          90189.9 90190 90190 90190 90190 90190 90190 90190 90190 90190 90190 90190
          90190 90190 90190 90190 90190 90190 90190 90190 90190 90190 90190 90190
          90190 90190 90190 90190 90190 90190 90190 90190 90190 90190 90190 90190
          90190 90190 90190 90190 90190 90190 90190 90190 90190 90190 90190 90190
          90190 90190 90190 90190 90190 90190.1 90190.1 90190.2 90190.2 90190.4 90190.7 90191.1
          90191.7 90192.7 90194.2 90196.4 90199.8 90204.6 90211.7 90221.7 90235.6 90254.6 90280.1 90313.5
          90356.4 90410.1 90475.9 90554.4 90646.1
        </DataArray>
        <DataArray type="Float32" Name="pc" NumberOfComponents="1" format="ascii">
          10264.3 10173.6 10097.1 10033.5 9981.57 9939.85 9906.89 9881.28 9861.71 9847 9836.12 9828.19
          9822.51 9818.5 9815.71 9813.79 9812.49 9811.62 9811.04 9810.66 9810.42 9810.26 9810.16 9810.1
          9810.06 9810.04 9810.02 9810.01 9810.01 9810 9810 9810 9810 9810 9810 9810
          9810 9810 9810 9810 9810 9810 9810 9810 9810 9810 9810 9810
          9810 9810 9810 9810 9810 9810 9810 9810 9810 9810 9810 9810
          9810 9810 9810 9810 9810 9810 9810 9810 9810 9810 9810 9810
          9810 9809.99 9809.99 9809.98 9809.97 9809.95 9809.91 9809.85 9809.75 9809.59 9809.33 9808.93
          9808.3 9807.32 9805.83 9803.59 9800.25 9795.36 9788.31 9778.33 9764.41 9745.4 9719.92 9686.5
          9643.64 9589.9 9524.13 9445.56 9353.93
        </DataArray>
        <DataArray type="Float32" Name="rhoW" NumberOfComponents="1" format="ascii">
          1000 1000 1000 1000 1000 1000 1000 1000 1000 1000 1000 1000
          1000 1000 1000 1000 1000 1000 1000 1000 1000 1000 1000 1000
          1000 1000 1000 1000 1000 1000 1000 1000 1000 1000 1000 1000
          1000 1000 1000 1000 1000 1000 1000 1000 1000 1000 1000 1000
          1000 1000 1000 1000 1000 1000 1000 1000 1000 1000 1000 1000
          1000 1000 1000 1000 1000 1000 1000 1000 1000 1000 1000 1000
          1000 1000 1000 1000 1000 1000 1000 1000 1000 1000 1000 1000
          1000 1000 1000 1000 1000 1000 1000 1000 1000 1000 1000 1000
          1000 1000 1000 1000 1000
        </DataArray>
        <DataArray type="Float32" Name="rhoN" NumberOfComponents="1" format="ascii">
          1e-10 1e-10 1e-10 1e-10 1e-10 1e-10 1e-10 1e-10 1e-10 1e-10 1e-10 1e-10
          1e-10 1e-10 1e-10 1e-10 1e-10 1e-10 1e-10 1e-10 1e-10 1e-10 1e-10 1e-10
          1e-10 1e-10 1e-10 1e-10 1e-10 1e-10 1e-10 1e-10 1e-10 1e-10 1e-10 1e-10
          1e-10 1e-10 1e-10 1e-10 1e-10 1e-10 1e-10 1e-10 1e-10 1e-10 1e-10 1e-10
          1e-10 1e-10 1e-10 1e-10 1e-10 1e-10 1e-10 1e-10 1e-10 1e-10 1e-10 1e-10
          1e-10 1e-10 1e-10 1e-10 1e-10 1e-10 1e-10 1e-10 1e-10 1e-10 1e-10 1e-10
          1e-10 1e-10 1e-10 1e-10 1e-10 1e-10 1e-10 1e-10 1e-10 1e-10 1e-10 1e-10
          1e-10 1e-10 1e-10 1e-10 1e-10 1e-10 1e-10 1e-10 1e-10 1e-10 1e-10 1e-10
          1e-10 1e-10 1e-10 1e-10 1e-10
        </DataArray>
        <DataArray type="Float32" Name="mobW" NumberOfComponents="1" format="ascii">
          1.18011 1.21331 1.24226 1.26699 1.28765 1.30457 1.31814 1.3288 1.33703 1.34325 1.34788 1.35126
          1.3537 1.35542 1.35662 1.35744 1.358 1.35838 1.35863 1.35879 1.35889 1.35896 1.35901 1.35903
          1.35905 1.35906 1.35907 1.35907 1.35907 1.35907 1.35907 1.35907 1.35907 1.35908 1.35908 1.35908
          1.35908 1.35908 1.35908 1.35908 1.35908 1.35908 1.35908 1.35908 1.35908 1.35908 1.35908 1.35908
          1.35908 1.35908 1.35908 1.35908 1.35908 1.35908 1.35908 1.35908 1.35908 1.35908 1.35908 1.35908
          1.35908 1.35908 1.35908 1.35908 1.35908 1.35908 1.35908 1.35908 1.35908 1.35908 1.35908 1.35908
          1.35908 1.35908 1.35908 1.35908 1.35909 1.3591 1.35911 1.35914 1.35918 1.35925 1.35936 1.35954
          1.35981 1.36023 1.36087 1.36184 1.36329 1.3654 1.36846 1.37281 1.3789 1.38728 1.39861 1.41365
          1.43324 1.4583 1.48974 1.52844 1.57522
        </DataArray>
        <DataArray type="Float32" Name="mobN" NumberOfComponents="1" format="ascii">
          1e+10 1e+10 1e+10 1e+10 1e+10 1e+10 1e+10 1e+10 1e+10 1e+10 1e+10 1e+10
          1e+10 1e+10 1e+10 1e+10 1e+10 1e+10 1e+10 1e+10 1e+10 1e+10 1e+10 1e+10
          1e+10 1e+10 1e+10 1e+10 1e+10 1e+10 1e+10 1e+10 1e+10 1e+10 1e+10 1e+10
          1e+10 1e+10 1e+10 1e+10 1e+10 1e+10 1e+10 1e+10 1e+10 1e+10 1e+10 1e+10
          1e+10 1e+10 1e+10 1e+10 1e+10 1e+10 1e+10 1e+10 1e+10 1e+10 1e+10 1e+10
          1e+10 1e+10 1e+10 1e+10 1e+10 1e+10 1e+10 1e+10 1e+10 1e+10 1e+10 1e+10
          1e+10 1e+10 1e+10 1e+10 1e+10 1e+10 1e+10 1e+10 1e+10 1e+10 1e+10 1e+10
          1e+10 1e+10 1e+10 1e+10 1e+10 1e+10 1e+10 1e+10 1e+10 1e+10 1e+10 1e+10
          1e+10 1e+10 1e+10 1e+10 1e+10
        </DataArray>
        <DataArray type="Float32" Name="porosity" NumberOfComponents="1" format="ascii">
          1 1 1 1 1 1 1 1 1 1 1 1
          1 1 1 1 1 1 1 1 1 1 1 1
          1 1 1 1 1 1 1 1 1 1 1 1
          1 1 1 1 1 1 1 1 1 1 1 1
          1 1 1 1 1 1 1 1 1 1 1 1
          1 1 1 1 1 1 1 1 1 1 1 1
          1 1 1 1 1 1 1 1 1 1 1 1
          1 1 1 1 1 1 1 1 1 1 1 1
          1 1 1 1 1
        </DataArray>
        <DataArray type="Float32" Name="temperature" NumberOfComponents="1" format="ascii">
          283.15 283.15 283.15 283.15 283.15 283.15 283.15 283.15 283.15 283.15 283.15 283.15
          283.15 283.15 283.15 283.15 283.15 283.15 283.15 283.15 283.15 283.15 283.15 283.15
          283.15 283.15 283.15 283.15 283.15 283.15 283.15 283.15 283.15 283.15 283.15 283.15
          283.15 283.15 283.15 283.15 283.15 283.15 283.15 283.15 283.15 283.15 283.15 283.15
          283.15 283.15 283.15 283.15 283.15 283.15 283.15 283.15 283.15 283.15 283.15 283.15
          283.15 283.15 283.15 283.15 283.15 283.15 283.15 283.15 283.15 283.15 283.15 283.15
          283.15 283.15 283.15 283.15 283.15 283.15 283.15 283.15 283.15 283.15 283.15 283.15
          283.15 283.15 283.15 283.15 283.15 283.15 283.15 283.15 283.15 283.15 283.15 283.15
          283.15 283.15 283.15 283.15 283.15
        </DataArray>
        <DataArray type="Float32" Name="pressure head" NumberOfComponents="1" format="ascii">
          -104.631 -103.707 -102.926 -102.278 -101.749 -101.324 -100.988 -100.727 -100.527 -100.377 -100.266 -100.185
          -100.128 -100.087 -100.058 -100.039 -100.025 -100.016 -100.011 -100.007 -100.004 -100.003 -100.002 -100.001
          -100.001 -100 -100 -100 -100 -100 -100 -100 -100 -100 -100 -100
          -100 -100 -100 -100 -100 -100 -100 -100 -100 -100 -100 -100
          -100 -100 -100 -100 -100 -100 -100 -100 -100 -100 -100 -100
          -100 -100 -100 -100 -100 -100 -100 -100 -100 -100 -100 -100
          -100 -99.9999 -99.9999 -99.9998 -99.9997 -99.9994 -99.9991 -99.9984 -99.9974 -99.9958 -99.9932 -99.9891
          -99.9827 -99.9727 -99.9575 -99.9346 -99.9006 -99.8508 -99.7789 -99.6771 -99.5353 -99.3415 -99.0818 -98.7411
          -98.3041 -97.7564 -97.086 -96.285 -95.351
        </DataArray>
        <DataArray type="Float32" Name="water content" NumberOfComponents="1" format="ascii">
          0.238493 0.239203 0.239808 0.240315 0.240732 0.24107 0.241338 0.241546 0.241707 0.241827 0.241917 0.241982
          0.242029 0.242062 0.242085 0.242101 0.242111 0.242118 0.242123 0.242126 0.242128 0.24213 0.24213 0.242131
          0.242131 0.242131 0.242132 0.242132 0.242132 0.242132 0.242132 0.242132 0.242132 0.242132 0.242132 0.242132
          0.242132 0.242132 0.242132 0.242132 0.242132 0.242132 0.242132 0.242132 0.242132 0.242132 0.242132 0.242132
          0.242132 0.242132 0.242132 0.242132 0.242132 0.242132 0.242132 0.242132 0.242132 0.242132 0.242132 0.242132
          0.242132 0.242132 0.242132 0.242132 0.242132 0.242132 0.242132 0.242132 0.242132 0.242132 0.242132 0.242132
          0.242132 0.242132 0.242132 0.242132 0.242132 0.242132 0.242133 0.242133 0.242134 0.242135 0.242137 0.242141
          0.242146 0.242154 0.242166 0.242185 0.242212 0.242253 0.242311 0.242394 0.242509 0.242667 0.242879 0.243159
          0.24352 0.243975 0.244536 0.245214 0.246013
        </DataArray>
      </PointData>
      <CellData Scalars="process rank">
        <DataArray type="Float32" Name="process rank" NumberOfComponents="1" format="ascii">
          0 0 0 0 0 0 0 0 0 0 0 0
          0 0 0 0 0 0 0 0 0 0 0 0
          0 0 0 0 0 0 0 0 0 0 0 0
          0 0 0 0 0 0 0 0 0 0 0 0
          0 0 0 0 0 0 0 0 0 0 0 0
          0 0 0 0 0 0 0 0 0 0 0 0
          0 0 0 0 0 0 0 0 0 0 0 0
          0 0 0 0 0 0 0 0 0 0 0 0
          0 0 0 0
        </DataArray>
      </CellData>
      <Points>
        <DataArray type="Float32" Name="Coordinates" NumberOfComponents="3" format="ascii">
          0 0 0 -0.01 0 0 -0.02 0 0 -0.03 0 0
          -0.04 0 0 -0.05 0 0 -0.06 0 0 -0.07 0 0
          -0.08 0 0 -0.09 0 0 -0.1 0 0 -0.11 0 0
          -0.12 0 0 -0.13 0 0 -0.14 0 0 -0.15 0 0
          -0.16 0 0 -0.17 0 0 -0.18 0 0 -0.19 0 0
          -0.2 0 0 -0.21 0 0 -0.22 0 0 -0.23 0 0
          -0.24 0 0 -0.25 0 0 -0.26 0 0 -0.27 0 0
          -0.28 0 0 -0.29 0 0 -0.3 0 0 -0.31 0 0
          -0.32 0 0 -0.33 0 0 -0.34 0 0 -0.35 0 0
          -0.36 0 0 -0.37 0 0 -0.38 0 0 -0.39 0 0
          -0.4 0 0 -0.41 0 0 -0.42 0 0 -0.43 0 0
          -0.44 0 0 -0.45 0 0 -0.46 0 0 -0.47 0 0
          -0.48 0 0 -0.49 0 0 -0.5 0 0 -0.51 0 0
          -0.52 0 0 -0.53 0 0 -0.54 0 0 -0.55 0 0
          -0.56 0 0 -0.57 0 0 -0.58 0 0 -0.59 0 0
          -0.6 0 0 -0.61 0 0 -0.62 0 0 -0.63 0 0
          -0.64 0 0 -0.65 0 0 -0.66 0 0 -0.67 0 0
          -0.68 0 0 -0.69 0 0 -0.7 0 0 -0.71 0 0
          -0.72 0 0 -0.73 0 0 -0.74 0 0 -0.75 0 0
          -0.76 0 0 -0.77 0 0 -0.78 0 0 -0.79 0 0
          -0.8 0 0 -0.81 0 0 -0.82 0 0 -0.83 0 0
          -0.84 0 0 -0.85 0 0 -0.86 0 0 -0.87 0 0
          -0.88 0 0 -0.89 0 0 -0.9 0 0 -0.91 0 0
          -0.92 0 0 -0.93 0 0 -0.94 0 0 -0.95 0 0
          -0.96 0 0 -0.97 0 0 -0.98 0 0 -0.99 0 0
          -1 0 0
        </DataArray>
      </Points>
      <Lines>
        <DataArray type="Int32" Name="connectivity" NumberOfComponents="1" format="ascii">
          0 1 1 2 2 3 3 4 4 5 5 6
          6 7 7 8 8 9 9 10 10 11 11 12
          12 13 13 14 14 15 15 16 16 17 17 18
          18 19 19 20 20 21 21 22 22 23 23 24
          24 25 25 26 26 27 27 28 28 29 29 30
          30 31 31 32 32 33 33 34 34 35 35 36
          36 37 37 38 38 39 39 40 40 41 41 42
          42 43 43 44 44 45 45 46 46 47 47 48
          48 49 49 50 50 51 51 52 52 53 53 54
          54 55 55 56 56 57 57 58 58 59 59 60
          60 61 61 62 62 63 63 64 64 65 65 66
          66 67 67 68 68 69 69 70 70 71 71 72
          72 73 73 74 74 75 75 76 76 77 77 78
          78 79 79 80 80 81 81 82 82 83 83 84
          84 85 85 86 86 87 87 88 88 89 89 90
          90 91 91 92 92 93 93 94 94 95 95 96
          96 97 97 98 98 99 99 100
        </DataArray>
        <DataArray type="Int32" Name="offsets" NumberOfComponents="1" format="ascii">
          2 4 6 8 10 12 14 16 18 20 22 24
          26 28 30 32 34 36 38 40 42 44 46 48
          50 52 54 56 58 60 62 64 66 68 70 72
          74 76 78 80 82 84 86 88 90 92 94 96
          98 100 102 104 106 108 110 112 114 116 118 120
          122 124 126 128 130 132 134 136 138 140 142 144
          146 148 150 152 154 156 158 160 162 164 166 168
          170 172 174 176 178 180 182 184 186 188 190 192
          194 196 198 200
        </DataArray>
      </Lines>
    </Piece>
  </PolyData>
</VTKFile>
