<?xml version="1.0"?>
<VTKFile type="PolyData" version="0.1" byte_order="LittleEndian">
  <PolyData>
    <Piece NumberOfLines="200" NumberOfPoints="201">
      <PointData Scalars="Sn">
        <DataArray type="Float32" Name="Sn" NumberOfComponents="1" format="ascii">
          0.601771 0.601775 0.601779 0.601783 0.601787 0.601792 0.601797 0.601802 0.601808 0.601815 0.601822 0.601829
          0.601837 0.601846 0.601855 0.601865 0.601876 0.601887 0.6019 0.601914 0.601928 0.601944 0.601961 0.601979
          0.601999 0.60202 0.602043 0.602068 0.602095 0.602123 0.602154 0.602188 0.602224 0.602263 0.602305 0.60235
          0.602399 0.602452 0.602509 0.602571 0.602637 0.602709 0.602786 0.60287 0.60296 0.603057 0.603162 0.603276
          0.603399 0.603532 0.899963 0.899963 0.899963 0.899963 0.899963 0.899963 0.899963 0.899963 0.899963 0.899963
          0.899963 0.899963 0.899963 0.899963 0.899963 0.899963 0.899963 0.899963 0.899963 0.899963 0.899963 0.899963
          0.899963 0.899963 0.899963 0.899963 0.899963 0.899963 0.899963 0.899963 0.899963 0.899963 0.899963 0.899963
          0.899963 0.899963 0.899963 0.899963 0.899963 0.899963 0.899963 0.899963 0.899963 0.899963 0.899963 0.899963
          0.899963 0.899963 0.899963 0.899963 0.899963 0.899963 0.899963 0.899963 0.899963 0.899963 0.899963 0.899963
          0.899963 0.899963 0.899963 0.899963 0.899963 0.899963 0.899963 0.899963 0.899963 0.899963 0.899963 0.899963
          0.899963 0.899963 0.899963 0.899963 0.899963 0.899963 0.899963 0.899963 0.899963 0.899963 0.899963 0.899963
          0.899963 0.899963 0.899963 0.899963 0.899963 0.899963 0.899963 0.899963 0.899963 0.899963 0.899963 0.899963
          0.899963 0.899963 0.899963 0.899963 0.899963 0.899963 0.899963 0.899963 0.899963 0.899963 0.899963 0.899963
          0.899963 0.899963 0.899963 0.899963 0.899963 0.899963 0.899963 0.899963 0.899963 0.899963 0.899963 0.899963
          0.899963 0.899963 0.899963 0.899963 0.899963 0.899963 0.899963 0.899963 0.899963 0.899963 0.899963 0.899963
          0.899963 0.899963 0.899963 0.899963 0.899963 0.899963 0.899963 0.899963 0.899963 0.899963 0.899963 0.899963
          0.899963 0.899963 0.899963 0.899963 0.899963 0.899963 0.899963 0.899963 0.899963
        </DataArray>
        <DataArray type="Float32" Name="Sw" NumberOfComponents="1" format="ascii">
          0.398229 0.398225 0.398221 0.398217 0.398213 0.398208 0.398203 0.398198 0.398192 0.398185 0.398178 0.398171
          0.398163 0.398154 0.398145 0.398135 0.398124 0.398113 0.3981 0.398086 0.398072 0.398056 0.398039 0.398021
          0.398001 0.39798 0.397957 0.397932 0.397905 0.397877 0.397845 0.397812 0.397776 0.397737 0.397695 0.39765
          0.397601 0.397548 0.397491 0.397429 0.397363 0.397291 0.397214 0.39713 0.39704 0.396943 0.396838 0.396724
          0.396601 0.396468 0.100037 0.100037 0.100037 0.100037 0.100037 0.100037 0.100037 0.100037 0.100037 0.100037
          0.100037 0.100037 0.100037 0.100037 0.100037 0.100037 0.100037 0.100037 0.100037 0.100037 0.100037 0.100037
          0.100037 0.100037 0.100037 0.100037 0.100037 0.100037 0.100037 0.100037 0.100037 0.100037 0.100037 0.100037
          0.100037 0.100037 0.100037 0.100037 0.100037 0.100037 0.100037 0.100037 0.100037 0.100037 0.100037 0.100037
          0.100037 0.100037 0.100037 0.100037 0.100037 0.100037 0.100037 0.100037 0.100037 0.100037 0.100037 0.100037
          0.100037 0.100037 0.100037 0.100037 0.100037 0.100037 0.100037 0.100037 0.100037 0.100037 0.100037 0.100037
          0.100037 0.100037 0.100037 0.100037 0.100037 0.100037 0.100037 0.100037 0.100037 0.100037 0.100037 0.100037
          0.100037 0.100037 0.100037 0.100037 0.100037 0.100037 0.100037 0.100037 0.100037 0.100037 0.100037 0.100037
          0.100037 0.100037 0.100037 0.100037 0.100037 0.100037 0.100037 0.100037 0.100037 0.100037 0.100037 0.100037
          0.100037 0.100037 0.100037 0.100037 0.100037 0.100037 0.100037 0.100037 0.100037 0.100037 0.100037 0.100037
          0.100037 0.100037 0.100037 0.100037 0.100037 0.100037 0.100037 0.100037 0.100037 0.100037 0.100037 0.100037
          0.100037 0.100037 0.100037 0.100037 0.100037 0.100037 0.100037 0.100037 0.100037 0.100037 0.100037 0.100037
          0.100037 0.100037 0.100037 0.100037 0.100037 0.100037 0.100037 0.100037 0.100037
        </DataArray>
        <DataArray type="Float32" Name="pn" NumberOfComponents="1" format="ascii">
          100000 100000 100000 100000 100000 100000 100000 100000 100000 100000 100000 100000
          100000 100000 100000 100000 100000 100000 100000 100000 100000 100000 100000 100000
          100000 100000 100000 100000 100000 100000 100000 100000 100000 100000 100000 100000
          100000 100000 100000 100000 100000 100000 100000 100000 100000 100000 100000 100000
          100000 100000 100000 100000 100000 100000 100000 100000 100000 100000 100000 100000
          100000 100000 100000 100000 100000 100000 100000 100000 100000 100000 100000 100000
          100000 100000 100000 100000 100000 100000 100000 100000 100000 100000 100000 100000
          100000 100000 100000 100000 100000 100000 100000 100000 100000 100000 100000 100000
          100000 100000 100000 100000 100000 100000 100000 100000 100000 100000 100000 100000
          100000 100000 100000 100000 100000 100000 100000 100000 100000 100000 100000 100000
          100000 100000 100000 100000 100000 100000 100000 100000 100000 100000 100000 100000
          100000 100000 100000 100000 100000 100000 100000 100000 100000 100000 100000 100000
          100000 100000 100000 100000 100000 100000 100000 100000 100000 100000 100000 100000
          100000 100000 100000 100000 100000 100000 100000 100000 100000 100000 100000 100000
          100000 100000 100000 100000 100000 100000 100000 100000 100000 100000 100000 100000
          100000 100000 100000 100000 100000 100000 100000 100000 100000 100000 100000 100000
          100000 100000 100000 100000 100000 100000 100000 100000 100000
        </DataArray>
        <DataArray type="Float32" Name="pw" NumberOfComponents="1" format="ascii">
          99156.1 99154.6 99152.9 99151.1 99149.1 99147 99144.7 99142.2 99139.5 99136.7 99133.6 99130.3
          99126.7 99122.8 99118.6 99114.1 99109.3 99104.1 99098.4 99092.4 99085.8 99078.8 99071.1 99062.9
          99054.1 99044.6 99034.3 99023.2 99011.3 98998.4 98984.5 98969.5 98953.4 98935.9 98917.1 98896.9
          98875 98851.4 98825.9 98798.4 98768.7 98736.6 98702 98664.6 98624.2 98580.5 98533.3 98482.1
          98426.8 98366.9 98302 98302 98302 98302 98302 98302 98302 98302 98302 98302
          98302 98302 98302 98302 98302 98302 98302 98302 98302 98302 98302 98302
          98302 98302 98302 98302 98302 98302 98302 98302 98302 98302 98302 98302
          98302 98302 98302 98302 98302 98302 98302 98302 98302 98302 98302 98302
          98302 98302 98302 98302 98302 98302 98302 98302 98302 98302 98302 98302
          98302 98302 98302 98302 98302 98302 98302 98302 98302 98302 98302 98302
          98302 98302 98302 98302 98302 98302 98302 98302 98302 98302 98302 98302
          98302 98302 98302 98302 98302 98302 98302 98302 98302 98302 98302 98302
          98302 98302 98302 98302 98302 98302 98302 98302 98302 98302 98302 98302
          98302 98302 98302 98302 98302 98302 98302 98302 98302 98302 98302 98302
          98302 98302 98302 98302 98302 98302 98302 98302 98302 98302 98302 98302
          98302 98302 98302 98302 98302 98302 98302 98302 98302 98302 98302 98302
          98302 98302 98302 98302 98302 98302 98302 98302 98302
        </DataArray>
        <DataArray type="Float32" Name="pc" NumberOfComponents="1" format="ascii">
          843.85 845.423 847.119 848.947 850.917 853.041 855.33 857.798 860.457 863.324 866.414 869.745
          873.335 877.205 881.377 885.873 890.721 895.946 901.578 907.65 914.195 921.251 928.857 937.057
          945.898 955.429 965.706 976.785 988.732 1001.61 1015.51 1030.49 1046.64 1064.07 1082.87 1103.15
          1125.02 1148.63 1174.11 1201.61 1231.3 1263.35 1297.98 1335.38 1375.8 1419.49 1466.74 1517.86
          1573.18 1633.09 1698 1698 1698 1698 1698 1698 1698 1698 1698 1698
          1698 1698 1698 1698 1698 1698 1698 1698 1698 1698 1698 1698
          1698 1698 1698 1698 1698 1698 1698 1698 1698 1698 1698 1698
          1698 1698 1698 1698 1698 1698 1698 1698 1698 1698 1698 1698
          1698 1698 1698 1698 1698 1698 1698 1698 1698 1698 1698 1698
          1698 1698 1698 1698 1698 1698 1698 1698 1698 1698 1698 1698
          1698 1698 1698 1698 1698 1698 1698 1698 1698 1698 1698 1698
          1698 1698 1698 1698 1698 1698 1698 1698 1698 1698 1698 1698
          1698 1698 1698 1698 1698 1698 1698 1698 1698 1698 1698 1698
          1698 1698 1698 1698 1698 1698 1698 1698 1698 1698 1698 1698
          1698 1698 1698 1698 1698 1698 1698 1698 1698 1698 1698 1698
          1698 1698 1698 1698 1698 1698 1698 1698 1698 1698 1698 1698
          1698 1698 1698 1698 1698 1698 1698 1698 1698
        </DataArray>
        <DataArray type="Float32" Name="rhoW" NumberOfComponents="1" format="ascii">
          1000 1000 1000 1000 1000 1000 1000 1000 1000 1000 1000 1000
          1000 1000 1000 1000 1000 1000 1000 1000 1000 1000 1000 1000
          1000 1000 1000 1000 1000 1000 1000 1000 1000 1000 1000 1000
          1000 1000 1000 1000 1000 1000 1000 1000 1000 1000 1000 1000
          1000 1000 1000 1000 1000 1000 1000 1000 1000 1000 1000 1000
          1000 1000 1000 1000 1000 1000 1000 1000 1000 1000 1000 1000
          1000 1000 1000 1000 1000 1000 1000 1000 1000 1000 1000 1000
          1000 1000 1000 1000 1000 1000 1000 1000 1000 1000 1000 1000
          1000 1000 1000 1000 1000 1000 1000 1000 1000 1000 1000 1000
          1000 1000 1000 1000 1000 1000 1000 1000 1000 1000 1000 1000
          1000 1000 1000 1000 1000 1000 1000 1000 1000 1000 1000 1000
          1000 1000 1000 1000 1000 1000 1000 1000 1000 1000 1000 1000
          1000 1000 1000 1000 1000 1000 1000 1000 1000 1000 1000 1000
          1000 1000 1000 1000 1000 1000 1000 1000 1000 1000 1000 1000
          1000 1000 1000 1000 1000 1000 1000 1000 1000 1000 1000 1000
          1000 1000 1000 1000 1000 1000 1000 1000 1000 1000 1000 1000
          1000 1000 1000 1000 1000 1000 1000 1000 1000
        </DataArray>
        <DataArray type="Float32" Name="rhoN" NumberOfComponents="1" format="ascii">
          1e-10 1e-10 1e-10 1e-10 1e-10 1e-10 1e-10 1e-10 1e-10 1e-10 1e-10 1e-10
          1e-10 1e-10 1e-10 1e-10 1e-10 1e-10 1e-10 1e-10 1e-10 1e-10 1e-10 1e-10
          1e-10 1e-10 1e-10 1e-10 1e-10 1e-10 1e-10 1e-10 1e-10 1e-10 1e-10 1e-10
          1e-10 1e-10 1e-10 1e-10 1e-10 1e-10 1e-10 1e-10 1e-10 1e-10 1e-10 1e-10
          1e-10 1e-10 1e-10 1e-10 1e-10 1e-10 1e-10 1e-10 1e-10 1e-10 1e-10 1e-10
          1e-10 1e-10 1e-10 1e-10 1e-10 1e-10 1e-10 1e-10 1e-10 1e-10 1e-10 1e-10
          1e-10 1e-10 1e-10 1e-10 1e-10 1e-10 1e-10 1e-10 1e-10 1e-10 1e-10 1e-10
          1e-10 1e-10 1e-10 1e-10 1e-10 1e-10 1e-10 1e-10 1e-10 1e-10 1e-10 1e-10
          1e-10 1e-10 1e-10 1e-10 1e-10 1e-10 1e-10 1e-10 1e-10 1e-10 1e-10 1e-10
          1e-10 1e-10 1e-10 1e-10 1e-10 1e-10 1e-10 1e-10 1e-10 1e-10 1e-10 1e-10
          1e-10 1e-10 1e-10 1e-10 1e-10 1e-10 1e-10 1e-10 1e-10 1e-10 1e-10 1e-10
          1e-10 1e-10 1e-10 1e-10 1e-10 1e-10 1e-10 1e-10 1e-10 1e-10 1e-10 1e-10
          1e-10 1e-10 1e-10 1e-10 1e-10 1e-10 1e-10 1e-10 1e-10 1e-10 1e-10 1e-10
          1e-10 1e-10 1e-10 1e-10 1e-10 1e-10 1e-10 1e-10 1e-10 1e-10 1e-10 1e-10
          1e-10 1e-10 1e-10 1e-10 1e-10 1e-10 1e-10 1e-10 1e-10 1e-10 1e-10 1e-10
          1e-10 1e-10 1e-10 1e-10 1e-10 1e-10 1e-10 1e-10 1e-10 1e-10 1e-10 1e-10
          1e-10 1e-10 1e-10 1e-10 1e-10 1e-10 1e-10 1e-10 1e-10
        </DataArray>
        <DataArray type="Float32" Name="mobW" NumberOfComponents="1" format="ascii">
          49.211 49.1506 49.0857 49.0159 48.9408 48.8602 48.7736 48.6805 48.5807 48.4734 48.3584 48.235
          48.1027 47.9608 47.8089 47.6461 47.4719 47.2854 47.0861 46.873 46.6454 46.4024 46.1432 45.8669
          45.5725 45.2593 44.9262 44.5723 44.1966 43.7982 43.3763 42.9299 42.4581 41.9601 41.4352 40.8826
          40.3017 39.692 39.0529 38.3842 37.6856 36.957 36.1985 35.4103 34.5928 33.7465 32.8721 31.9705
          31.0429 30.0904 0.500003 0.500003 0.500003 0.500003 0.500003 0.500003 0.500003 0.500003 0.500003 0.500003
          0.500003 0.500003 0.500003 0.500003 0.500003 0.500003 0.500003 0.500003 0.500003 0.500003 0.500003 0.500003
          0.500003 0.500003 0.500003 0.500003 0.500003 0.500003 0.500003 0.500003 0.500003 0.500003 0.500003 0.500003
          0.500003 0.500003 0.500003 0.500003 0.500003 0.500003 0.500003 0.500003 0.500003 0.500003 0.500003 0.500003
          0.500003 0.500003 0.500003 0.500003 0.500003 0.500003 0.500003 0.500003 0.500003 0.500003 0.500003 0.500003
          0.500003 0.500003 0.500003 0.500003 0.500003 0.500003 0.500003 0.500003 0.500003 0.500003 0.500003 0.500003
          0.500003 0.500003 0.500003 0.500003 0.500003 0.500003 0.500003 0.500003 0.500003 0.500003 0.500003 0.500003
          0.500003 0.500003 0.500003 0.500003 0.500003 0.500003 0.500003 0.500003 0.500003 0.500003 0.500003 0.500003
          0.500003 0.500003 0.500003 0.500003 0.500003 0.500003 0.500003 0.500003 0.500003 0.500003 0.500003 0.500003
          0.500003 0.500003 0.500003 0.500003 0.500003 0.500003 0.500003 0.500003 0.500003 0.500003 0.500003 0.500003
          0.500003 0.500003 0.500003 0.500003 0.500003 0.500003 0.500003 0.500003 0.500003 0.500003 0.500003 0.500003
          0.500003 0.500003 0.500003 0.500003 0.500003 0.500003 0.500003 0.500003 0.500003 0.500003 0.500003 0.500003
          0.500003 0.500003 0.500003 0.500003 0.500003 0.500003 0.500003 0.500003 0.500003
        </DataArray>
        <DataArray type="Float32" Name="mobN" NumberOfComponents="1" format="ascii">
          1e+10 1e+10 1e+10 1e+10 1e+10 1e+10 1e+10 1e+10 1e+10 1e+10 1e+10 1e+10
          1e+10 1e+10 1e+10 1e+10 1e+10 1e+10 1e+10 1e+10 1e+10 1e+10 1e+10 1e+10
          1e+10 1e+10 1e+10 1e+10 1e+10 1e+10 1e+10 1e+10 1e+10 1e+10 1e+10 1e+10
          1e+10 1e+10 1e+10 1e+10 1e+10 1e+10 1e+10 1e+10 1e+10 1e+10 1e+10 1e+10
          1e+10 1e+10 1e+10 1e+10 1e+10 1e+10 1e+10 1e+10 1e+10 1e+10 1e+10 1e+10
          1e+10 1e+10 1e+10 1e+10 1e+10 1e+10 1e+10 1e+10 1e+10 1e+10 1e+10 1e+10
          1e+10 1e+10 1e+10 1e+10 1e+10 1e+10 1e+10 1e+10 1e+10 1e+10 1e+10 1e+10
          1e+10 1e+10 1e+10 1e+10 1e+10 1e+10 1e+10 1e+10 1e+10 1e+10 1e+10 1e+10
          1e+10 1e+10 1e+10 1e+10 1e+10 1e+10 1e+10 1e+10 1e+10 1e+10 1e+10 1e+10
          1e+10 1e+10 1e+10 1e+10 1e+10 1e+10 1e+10 1e+10 1e+10 1e+10 1e+10 1e+10
          1e+10 1e+10 1e+10 1e+10 1e+10 1e+10 1e+10 1e+10 1e+10 1e+10 1e+10 1e+10
          1e+10 1e+10 1e+10 1e+10 1e+10 1e+10 1e+10 1e+10 1e+10 1e+10 1e+10 1e+10
          1e+10 1e+10 1e+10 1e+10 1e+10 1e+10 1e+10 1e+10 1e+10 1e+10 1e+10 1e+10
          1e+10 1e+10 1e+10 1e+10 1e+10 1e+10 1e+10 1e+10 1e+10 1e+10 1e+10 1e+10
          1e+10 1e+10 1e+10 1e+10 1e+10 1e+10 1e+10 1e+10 1e+10 1e+10 1e+10 1e+10
          1e+10 1e+10 1e+10 1e+10 1e+10 1e+10 1e+10 1e+10 1e+10 1e+10 1e+10 1e+10
          1e+10 1e+10 1e+10 1e+10 1e+10 1e+10 1e+10 1e+10 1e+10
        </DataArray>
        <DataArray type="Float32" Name="porosity" NumberOfComponents="1" format="ascii">
          1 1 1 1 1 1 1 1 1 1 1 1
          1 1 1 1 1 1 1 1 1 1 1 1
          1 1 1 1 1 1 1 1 1 1 1 1
          1 1 1 1 1 1 1 1 1 1 1 1
          1 1 1 1 1 1 1 1 1 1 1 1
          1 1 1 1 1 1 1 1 1 1 1 1
          1 1 1 1 1 1 1 1 1 1 1 1
          1 1 1 1 1 1 1 1 1 1 1 1
          1 1 1 1 1 1 1 1 1 1 1 1
          1 1 1 1 1 1 1 1 1 1 1 1
          1 1 1 1 1 1 1 1 1 1 1 1
          1 1 1 1 1 1 1 1 1 1 1 1
          1 1 1 1 1 1 1 1 1 1 1 1
          1 1 1 1 1 1 1 1 1 1 1 1
          1 1 1 1 1 1 1 1 1 1 1 1
          1 1 1 1 1 1 1 1 1 1 1 1
          1 1 1 1 1 1 1 1 1
        </DataArray>
        <DataArray type="Float32" Name="temperature" NumberOfComponents="1" format="ascii">
          283.15 283.15 283.15 283.15 283.15 283.15 283.15 283.15 283.15 283.15 283.15 283.15
          283.15 283.15 283.15 283.15 283.15 283.15 283.15 283.15 283.15 283.15 283.15 283.15
          283.15 283.15 283.15 283.15 283.15 283.15 283.15 283.15 283.15 283.15 283.15 283.15
          283.15 283.15 283.15 283.15 283.15 283.15 283.15 283.15 283.15 283.15 283.15 283.15
          283.15 283.15 283.15 283.15 283.15 283.15 283.15 283.15 283.15 283.15 283.15 283.15
          283.15 283.15 283.15 283.15 283.15 283.15 283.15 283.15 283.15 283.15 283.15 283.15
          283.15 283.15 283.15 283.15 283.15 283.15 283.15 283.15 283.15 283.15 283.15 283.15
          283.15 283.15 283.15 283.15 283.15 283.15 283.15 283.15 283.15 283.15 283.15 283.15
          283.15 283.15 283.15 283.15 283.15 283.15 283.15 283.15 283.15 283.15 283.15 283.15
          283.15 283.15 283.15 283.15 283.15 283.15 283.15 283.15 283.15 283.15 283.15 283.15
          283.15 283.15 283.15 283.15 283.15 283.15 283.15 283.15 283.15 283.15 283.15 283.15
          283.15 283.15 283.15 283.15 283.15 283.15 283.15 283.15 283.15 283.15 283.15 283.15
          283.15 283.15 283.15 283.15 283.15 283.15 283.15 283.15 283.15 283.15 283.15 283.15
          283.15 283.15 283.15 283.15 283.15 283.15 283.15 283.15 283.15 283.15 283.15 283.15
          283.15 283.15 283.15 283.15 283.15 283.15 283.15 283.15 283.15 283.15 283.15 283.15
          283.15 283.15 283.15 283.15 283.15 283.15 283.15 283.15 283.15 283.15 283.15 283.15
          283.15 283.15 283.15 283.15 283.15 283.15 283.15 283.15 283.15
        </DataArray>
        <DataArray type="Float32" Name="pressure head" NumberOfComponents="1" format="ascii">
          -8.60194 -8.61797 -8.63526 -8.6539 -8.67398 -8.69563 -8.71896 -8.74411 -8.77123 -8.80045 -8.83195 -8.8659
          -8.9025 -8.94195 -8.98447 -9.03031 -9.07972 -9.13298 -9.1904 -9.25229 -9.31901 -9.39093 -9.46847 -9.55206
          -9.64218 -9.73934 -9.84409 -9.95704 -10.0788 -10.2101 -10.3517 -10.5045 -10.6691 -10.8468 -11.0384 -11.2451
          -11.4681 -11.7088 -11.9685 -12.2488 -12.5514 -12.8782 -13.2312 -13.6124 -14.0245 -14.4699 -14.9515 -15.4726
          -16.0365 -16.6472 -17.3089 -17.3089 -17.3089 -17.3089 -17.3089 -17.3089 -17.3089 -17.3089 -17.3089 -17.3089
          -17.3089 -17.3089 -17.3089 -17.3089 -17.3089 -17.3089 -17.3089 -17.3089 -17.3089 -17.3089 -17.3089 -17.3089
          -17.3089 -17.3089 -17.3089 -17.3089 -17.3089 -17.3089 -17.3089 -17.3089 -17.3089 -17.3089 -17.3089 -17.3089
          -17.3089 -17.3089 -17.3089 -17.3089 -17.3089 -17.3089 -17.3089 -17.3089 -17.3089 -17.3089 -17.3089 -17.3089
          -17.3089 -17.3089 -17.3089 -17.3089 -17.3089 -17.3089 -17.3089 -17.3089 -17.3089 -17.3089 -17.3089 -17.3089
          -17.3089 -17.3089 -17.3089 -17.3089 -17.3089 -17.3089 -17.3089 -17.3089 -17.3089 -17.3089 -17.3089 -17.3089
          -17.3089 -17.3089 -17.3089 -17.3089 -17.3089 -17.3089 -17.3089 -17.3089 -17.3089 -17.3089 -17.3089 -17.3089
          -17.3089 -17.3089 -17.3089 -17.3089 -17.3089 -17.3089 -17.3089 -17.3089 -17.3089 -17.3089 -17.3089 -17.3089
          -17.3089 -17.3089 -17.3089 -17.3089 -17.3089 -17.3089 -17.3089 -17.3089 -17.3089 -17.3089 -17.3089 -17.3089
          -17.3089 -17.3089 -17.3089 -17.3089 -17.3089 -17.3089 -17.3089 -17.3089 -17.3089 -17.3089 -17.3089 -17.3089
          -17.3089 -17.3089 -17.3089 -17.3089 -17.3089 -17.3089 -17.3089 -17.3089 -17.3089 -17.3089 -17.3089 -17.3089
          -17.3089 -17.3089 -17.3089 -17.3089 -17.3089 -17.3089 -17.3089 -17.3089 -17.3089 -17.3089 -17.3089 -17.3089
          -17.3089 -17.3089 -17.3089 -17.3089 -17.3089 -17.3089 -17.3089 -17.3089 -17.3089
        </DataArray>
        <DataArray type="Float32" Name="water content" NumberOfComponents="1" format="ascii">
          0.398229 0.398225 0.398221 0.398217 0.398213 0.398208 0.398203 0.398198 0.398192 0.398185 0.398178 0.398171
          0.398163 0.398154 0.398145 0.398135 0.398124 0.398113 0.3981 0.398086 0.398072 0.398056 0.398039 0.398021
          0.398001 0.39798 0.397957 0.397932 0.397905 0.397877 0.397845 0.397812 0.397776 0.397737 0.397695 0.39765
          0.397601 0.397548 0.397491 0.397429 0.397363 0.397291 0.397214 0.39713 0.39704 0.396943 0.396838 0.396724
          0.396601 0.396468 0.100037 0.100037 0.100037 0.100037 0.100037 0.100037 0.100037 0.100037 0.100037 0.100037
          0.100037 0.100037 0.100037 0.100037 0.100037 0.100037 0.100037 0.100037 0.100037 0.100037 0.100037 0.100037
          0.100037 0.100037 0.100037 0.100037 0.100037 0.100037 0.100037 0.100037 0.100037 0.100037 0.100037 0.100037
          0.100037 0.100037 0.100037 0.100037 0.100037 0.100037 0.100037 0.100037 0.100037 0.100037 0.100037 0.100037
          0.100037 0.100037 0.100037 0.100037 0.100037 0.100037 0.100037 0.100037 0.100037 0.100037 0.100037 0.100037
          0.100037 0.100037 0.100037 0.100037 0.100037 0.100037 0.100037 0.100037 0.100037 0.100037 0.100037 0.100037
          0.100037 0.100037 0.100037 0.100037 0.100037 0.100037 0.100037 0.100037 0.100037 0.100037 0.100037 0.100037
          0.100037 0.100037 0.100037 0.100037 0.100037 0.100037 0.100037 0.100037 0.100037 0.100037 0.100037 0.100037
          0.100037 0.100037 0.100037 0.100037 0.100037 0.100037 0.100037 0.100037 0.100037 0.100037 0.100037 0.100037
          0.100037 0.100037 0.100037 0.100037 0.100037 0.100037 0.100037 0.100037 0.100037 0.100037 0.100037 0.100037
          0.100037 0.100037 0.100037 0.100037 0.100037 0.100037 0.100037 0.100037 0.100037 0.100037 0.100037 0.100037
          0.100037 0.100037 0.100037 0.100037 0.100037 0.100037 0.100037 0.100037 0.100037 0.100037 0.100037 0.100037
          0.100037 0.100037 0.100037 0.100037 0.100037 0.100037 0.100037 0.100037 0.100037
        </DataArray>
      </PointData>
      <CellData Scalars="process rank">
        <DataArray type="Float32" Name="process rank" NumberOfComponents="1" format="ascii">
          0 0 0 0 0 0 0 0 0 0 0 0
          0 0 0 0 0 0 0 0 0 0 0 0
          0 0 0 0 0 0 0 0 0 0 0 0
          0 0 0 0 0 0 0 0 0 0 0 0
          0 0 0 0 0 0 0 0 0 0 0 0
          0 0 0 0 0 0 0 0 0 0 0 0
          0 0 0 0 0 0 0 0 0 0 0 0
          0 0 0 0 0 0 0 0 0 0 0 0
          0 0 0 0 0 0 0 0 0 0 0 0
          0 0 0 0 0 0 0 0 0 0 0 0
          0 0 0 0 0 0 0 0 0 0 0 0
          0 0 0 0 0 0 0 0 0 0 0 0
          0 0 0 0 0 0 0 0 0 0 0 0
          0 0 0 0 0 0 0 0 0 0 0 0
          0 0 0 0 0 0 0 0 0 0 0 0
          0 0 0 0 0 0 0 0 0 0 0 0
          0 0 0 0 0 0 0 0
        </DataArray>
      </CellData>
      <Points>
        <DataArray type="Float32" Name="Coordinates" NumberOfComponents="3" format="ascii">
          0 0 0 -0.01 0 0 -0.02 0 0 -0.03 0 0
          -0.04 0 0 -0.05 0 0 -0.06 0 0 -0.07 0 0
          -0.08 0 0 -0.09 0 0 -0.1 0 0 -0.11 0 0
          -0.12 0 0 -0.13 0 0 -0.14 0 0 -0.15 0 0
          -0.16 0 0 -0.17 0 0 -0.18 0 0 -0.19 0 0
          -0.2 0 0 -0.21 0 0 -0.22 0 0 -0.23 0 0
          -0.24 0 0 -0.25 0 0 -0.26 0 0 -0.27 0 0
          -0.28 0 0 -0.29 0 0 -0.3 0 0 -0.31 0 0
          -0.32 0 0 -0.33 0 0 -0.34 0 0 -0.35 0 0
          -0.36 0 0 -0.37 0 0 -0.38 0 0 -0.39 0 0
          -0.4 0 0 -0.41 0 0 -0.42 0 0 -0.43 0 0
          -0.44 0 0 -0.45 0 0 -0.46 0 0 -0.47 0 0
          -0.48 0 0 -0.49 0 0 -0.5 0 0 -0.51 0 0
          -0.52 0 0 -0.53 0 0 -0.54 0 0 -0.55 0 0
          -0.56 0 0 -0.57 0 0 -0.58 0 0 -0.59 0 0
          -0.6 0 0 -0.61 0 0 -0.62 0 0 -0.63 0 0
          -0.64 0 0 -0.65 0 0 -0.66 0 0 -0.67 0 0
          -0.68 0 0 -0.69 0 0 -0.7 0 0 -0.71 0 0
          -0.72 0 0 -0.73 0 0 -0.74 0 0 -0.75 0 0
          -0.76 0 0 -0.77 0 0 -0.78 0 0 -0.79 0 0
          -0.8 0 0 -0.81 0 0 -0.82 0 0 -0.83 0 0
          -0.84 0 0 -0.85 0 0 -0.86 0 0 -0.87 0 0
          -0.88 0 0 -0.89 0 0 -0.9 0 0 -0.91 0 0
          -0.92 0 0 -0.93 0 0 -0.94 0 0 -0.95 0 0
          -0.96 0 0 -0.97 0 0 -0.98 0 0 -0.99 0 0
          -1 0 0 -1.01 0 0 -1.02 0 0 -1.03 0 0
          -1.04 0 0 -1.05 0 0 -1.06 0 0 -1.07 0 0
          -1.08 0 0 -1.09 0 0 -1.1 0 0 -1.11 0 0
          -1.12 0 0 -1.13 0 0 -1.14 0 0 -1.15 0 0
          -1.16 0 0 -1.17 0 0 -1.18 0 0 -1.19 0 0
          -1.2 0 0 -1.21 0 0 -1.22 0 0 -1.23 0 0
          -1.24 0 0 -1.25 0 0 -1.26 0 0 -1.27 0 0
          -1.28 0 0 -1.29 0 0 -1.3 0 0 -1.31 0 0
          -1.32 0 0 -1.33 0 0 -1.34 0 0 -1.35 0 0
          -1.36 0 0 -1.37 0 0 -1.38 0 0 -1.39 0 0
          -1.4 0 0 -1.41 0 0 -1.42 0 0 -1.43 0 0
          -1.44 0 0 -1.45 0 0 -1.46 0 0 -1.47 0 0
          -1.48 0 0 -1.49 0 0 -1.5 0 0 -1.51 0 0
          -1.52 0 0 -1.53 0 0 -1.54 0 0 -1.55 0 0
          -1.56 0 0 -1.57 0 0 -1.58 0 0 -1.59 0 0
          -1.6 0 0 -1.61 0 0 -1.62 0 0 -1.63 0 0
          -1.64 0 0 -1.65 0 0 -1.66 0 0 -1.67 0 0
          -1.68 0 0 -1.69 0 0 -1.7 0 0 -1.71 0 0
          -1.72 0 0 -1.73 0 0 -1.74 0 0 -1.75 0 0
          -1.76 0 0 -1.77 0 0 -1.78 0 0 -1.79 0 0
          -1.8 0 0 -1.81 0 0 -1.82 0 0 -1.83 0 0
          -1.84 0 0 -1.85 0 0 -1.86 0 0 -1.87 0 0
          -1.88 0 0 -1.89 0 0 -1.9 0 0 -1.91 0 0
          -1.92 0 0 -1.93 0 0 -1.94 0 0 -1.95 0 0
          -1.96 0 0 -1.97 0 0 -1.98 0 0 -1.99 0 0
          -2 0 0
        </DataArray>
      </Points>
      <Lines>
        <DataArray type="Int32" Name="connectivity" NumberOfComponents="1" format="ascii">
          0 1 1 2 2 3 3 4 4 5 5 6
          6 7 7 8 8 9 9 10 10 11 11 12
          12 13 13 14 14 15 15 16 16 17 17 18
          18 19 19 20 20 21 21 22 22 23 23 24
          24 25 25 26 26 27 27 28 28 29 29 30
          30 31 31 32 32 33 33 34 34 35 35 36
          36 37 37 38 38 39 39 40 40 41 41 42
          42 43 43 44 44 45 45 46 46 47 47 48
          48 49 49 50 50 51 51 52 52 53 53 54
          54 55 55 56 56 57 57 58 58 59 59 60
          60 61 61 62 62 63 63 64 64 65 65 66
          66 67 67 68 68 69 69 70 70 71 71 72
          72 73 73 74 74 75 75 76 76 77 77 78
          78 79 79 80 80 81 81 82 82 83 83 84
          84 85 85 86 86 87 87 88 88 89 89 90
          90 91 91 92 92 93 93 94 94 95 95 96
          96 97 97 98 98 99 99 100 100 101 101 102
          102 103 103 104 104 105 105 106 106 107 107 108
          108 109 109 110 110 111 111 112 112 113 113 114
          114 115 115 116 116 117 117 118 118 119 119 120
          120 121 121 122 122 123 123 124 124 125 125 126
          126 127 127 128 128 129 129 130 130 131 131 132
          132 133 133 134 134 135 135 136 136 137 137 138
          138 139 139 140 140 141 141 142 142 143 143 144
          144 145 145 146 146 147 147 148 148 149 149 150
          150 151 151 152 152 153 153 154 154 155 155 156
          156 157 157 158 158 159 159 160 160 161 161 162
          162 163 163 164 164 165 165 166 166 167 167 168
          168 169 169 170 170 171 171 172 172 173 173 174
          174 175 175 176 176 177 177 178 178 179 179 180
          180 181 181 182 182 183 183 184 184 185 185 186
          186 187 187 188 188 189 189 190 190 191 191 192
          192 193 193 194 194 195 195 196 196 197 197 198
          198 199 199 200
        </DataArray>
        <DataArray type="Int32" Name="offsets" NumberOfComponents="1" format="ascii">
          2 4 6 8 10 12 14 16 18 20 22 24
          26 28 30 32 34 36 38 40 42 44 46 48
          50 52 54 56 58 60 62 64 66 68 70 72
          74 76 78 80 82 84 86 88 90 92 94 96
          98 100 102 104 106 108 110 112 114 116 118 120
          122 124 126 128 130 132 134 136 138 140 142 144
          146 148 150 152 154 156 158 160 162 164 166 168
          170 172 174 176 178 180 182 184 186 188 190 192
          194 196 198 200 202 204 206 208 210 212 214 216
          218 220 222 224 226 228 230 232 234 236 238 240
          242 244 246 248 250 252 254 256 258 260 262 264
          266 268 270 272 274 276 278 280 282 284 286 288
          290 292 294 296 298 300 302 304 306 308 310 312
          314 316 318 320 322 324 326 328 330 332 334 336
          338 340 342 344 346 348 350 352 354 356 358 360
          362 364 366 368 370 372 374 376 378 380 382 384
          386 388 390 392 394 396 398 400
        </DataArray>
      </Lines>
    </Piece>
  </PolyData>
</VTKFile>
