<?xml version="1.0"?>
<VTKFile type="UnstructuredGrid" version="0.1" byte_order="LittleEndian">
  <UnstructuredGrid>
    <Piece NumberOfCells="960" NumberOfPoints="1296">
      <CellData Scalars="p (Pa)">
        <DataArray type="Float32" Name="p (Pa)" NumberOfComponents="1" format="ascii">
          -453322 -456930 -463312 -470853 -477541 -481907 -483902 -484481 -452259 -455940 -462476 -470222
          -477035 -481300 -483042 -483428 -449889 -453577 -460144 -467948 -474769 -478866 -480299 -480460
          -446086 -449560 -455713 -462969 -469301 -473205 -474568 -474702 -441230 -444302 -449689 -455950
          -461371 -464839 -466254 -466540 -436175 -438779 -443300 -448492 -452979 -455962 -457386 -457822
          -431991 -434198 -438004 -442352 -446146 -448768 -450165 -450691 -429627 -431611 -435021 -438919
          -442356 -444793 -446168 -446731 -464226 -468864 -477140 -486932 -495273 -499923 -501232 -501147
          -463304 -468165 -476939 -487464 -496352 -500777 -501382 -500787 -460987 -466004 -475165 -486346
          -495799 -499974 -499689 -498456 -456884 -461628 -470192 -480447 -489092 -493509 -493367 -492136
          -451374 -455517 -462857 -471350 -478233 -481995 -482521 -481910 -445469 -448889 -454830 -461509
          -466800 -469843 -470756 -470690 -440499 -443292 -448076 -453379 -457641 -460243 -461329 -461570
          -437669 -440110 -444261 -448855 -452628 -455036 -456189 -456559 -486123 -493125 -505909 -521310
          -533788 -538710 -537786 -535795 -485609 -493306 -507784 -526035 -540916 -544872 -541263 -537536
          -483550 -491925 -508230 -530159 -548895 -551655 -543837 -537574 -478864 -486817 -501891 -521037
          -537029 -543598 -536820 -530434 -471961 -478825 -491402 -506221 -516752 -521219 -518533 -514866
          -464183 -469646 -479306 -489975 -496826 -499637 -498912 -497321 -457448 -461653 -468851 -476501
          -481581 -483844 -483997 -483452 -453570 -457068 -462953 -469143 -473501 -475646 -476163 -476029
          -518912 -530080 -551264 -577984 -598977 -603232 -596517 -590221 -519292 -532360 -558801 -596202
          -627423 -626486 -609101 -597038 -517993 -533296 -566985 -624748 -683408 -669639 -627086 -604220
          -512494 -527065 -557223 -601003 -640185 -662895 -623138 -597615 -503367 -515989 -541009 -573173
          -589661 -596191 -583288 -570025 -492388 -502131 -520416 -541383 -548786 -549577 -544565 -539050
          -482541 -489508 -501739 -514448 -519881 -520507 -518415 -516118 -476815 -482246 -491400 -500562
          -505399 -506502 -505577 -504411 -561225 -578414 -612449 -658073 -693279 -694724 -677150 -663597
          -563086 -584567 -632271 -713161 -785732 -762763 -708952 -679703 -563281 -590751 -663903 -876830
          -1.20692e+06 -1.00528e+06 -774634 -703681 -556819 -583158 -645030 -757004 -865623 -1.08024e+06 -806057 -705530
          -544714 -568425 -623390 -716167 -720382 -732774 -696019 -652194 -528964 -546938 -585667 -641138
          -632326 -622904 -609510 -595030 -514286 -526057 -548216 -572609 -574096 -569219 -562786 -557242
          -505730 -514203 -528848 -543207 -547362 -545672 -542101 -539212 -609497 -633240 -680887 -744970
          -788864 -792148 -768109 -748352 -612896 -643568 -713899 -836360 -900064 -881796 -815786 -772959
          -614624 -656125 -776593 -1.18952e+06 -1.22909e+06 -1.17686e+06 -937656 -816782 -606967 -648764 -758908 -997019
          -1.04892e+06 -1.10262e+06 -1.19965e+06 -847756 -591282 -632080 -754544 -1.19133e+06 -905098 -856825 -906103 -752521
          -569476 -600286 -684981 -924875 -753901 -703188 -685513 -655207 -548574 -566888 -605575 -658250
          -639776 -621693 -609539 -599736 -536503 -548655 -570621 -592924 -593700 -586998 -579922 -574980
          -658742 -688119 -746115 -821622 -876830 -887697 -859520 -835382 -662906 -700580 -783226 -910730
          -980035 -962955 -901546 -857661 -664551 -715316 -851410 -1.19809e+06 -1.23377e+06 -1.14804e+06 -993124 -891122
          -653680 -706526 -851980 -1.22849e+06 -1.25039e+06 -1.23263e+06 -1.12697e+06 -894438 -632231 -682087 -828160 -1.23166e+06
          -1.02906e+06 -926032 -866058 -787779 -604301 -642853 -758704 -1.18496e+06 -844644 -755984 -718137 -691320
          -578103 -600283 -649351 -723707 -689022 -660757 -642785 -631790 -563235 -577545 -603882 -631332
          -629894 -619866 -610287 -604287 -704239 -738926 -806219 -890074 -966918 -1.00963e+06 -959418 -924581
          -708656 -753517 -847726 -961430 -1.05088e+06 -1.05959e+06 -983828 -937504 -708631 -769598 -924357 -1.117e+06
          -1.23332e+06 -1.23324e+06 -1.02807e+06 -945963 -689846 -745446 -883301 -1.12964e+06 -1.23876e+06 -1.21728e+06 -996867 -897994
          -659856 -707434 -838241 -1.2169e+06 -1.10252e+06 -932146 -843997 -796443 -625735 -658393 -735869 -869473
          -821860 -765061 -728390 -707797 -596993 -616504 -654911 -699659 -694233 -675782 -659893 -650474
          -581193 -594423 -617680 -640445 -643847 -636978 -628595 -623205 -740883 -781049 -860090 -955126
          -1.07018e+06 -1.24041e+06 -1.07909e+06 -1.01637e+06 -745509 -801452 -929970 -1.03468e+06 -1.12616e+06 -1.17877e+06 -1.0748e+06 -1.025e+06
          -744081 -833347 -1.20557e+06 -1.23823e+06 -1.23717e+06 -1.24494e+06 -1.07472e+06 -1.0254e+06 -713454 -771397 -913191 -1.06811e+06
          -1.23181e+06 -1.08298e+06 -961441 -912843 -673632 -712044 -795971 -914366 -939536 -877961 -825482 -798418
          -635206 -659479 -707290 -763881 -770010 -747921 -725500 -712386 -605815 -620842 -647700 -675153
          -681439 -674196 -664368 -657996 -590215 -600972 -619141 -636656 -643209 -640983 -635804 -632062
          -762662 -803365 -883013 -985250 -1.11118e+06 -1.25838e+06 -1.14582e+06 -1.08611e+06 -764113 -816275 -925833 -1.04568e+06
          -1.16914e+06 -1.25504e+06 -1.16076e+06 -1.12144e+06 -755962 -824656 -1.00205e+06 -1.15676e+06 -1.23553e+06 -1.21649e+06 -1.146e+06 -1.22462e+06
          -721209 -770654 -879761 -1.01359e+06 -1.06064e+06 -1.00786e+06 -956701 -944322 -677060 -707745 -767938 -837218
          -858585 -837736 -812069 -798448 -636968 -655402 -688663 -723554 -735858 -729275 -717845 -710407
          -607861 -619393 -639071 -658689 -667560 -666596 -661791 -658113 -592801 -601319 -615461 -629405
          -636959 -637942 -635681 -633574 -771518 -811912 -892296 -994166 -1.10211e+06 -1.19439e+06 -1.1523e+06 -1.10146e+06
          -770674 -823237 -942790 -1.06844e+06 -1.17999e+06 -1.26084e+06 -1.21635e+06 -1.12752e+06 -759465 -834370 -1.11803e+06 -1.25184e+06
          -1.23905e+06 -1.2409e+06 -1.23735e+06 -1.13685e+06 -721516 -771394 -903298 -1.18104e+06 -1.04444e+06 -994250 -956542 -922652
          -675218 -702971 -759769 -832362 -832247 -817439 -799682 -787002 -634754 -650218 -677966 -707328
          -717450 -715256 -708447 -703200 -606241 -615674 -631649 -647843 -656579 -658108 -655949 -653769
          -591728 -598715 -610320 -622120 -629653 -632208 -631720 -630685 -769944 -807087 -881566 -983144
          -1.0832e+06 -1.15166e+06 -1.13477e+06 -1.07706e+06 -765692 -810185 -907712 -1.05168e+06 -1.17106e+06 -1.25439e+06 -1.24443e+06 -1.09018e+06
          -749846 -803383 -947031 -1.23373e+06 -1.23271e+06 -1.25402e+06 -1.11406e+06 -1.01853e+06 -713704 -754571 -857116 -1.09788e+06
          -1.00961e+06 -968278 -914313 -879501 -669459 -693305 -741674 -805691 -809890 -798784 -780806 -768260
          -630476 -643834 -667760 -693550 -703663 -703129 -697590 -693036 -603016 -611143 -624930 -639180
          -647601 -650010 -648888 -647341 -589073 -595097 -605151 -615617 -622853 -625988 -626311 -625803
          -764339 -798355 -866858 -963492 -1.05919e+06 -1.08777e+06 -1.05715e+06 -1.01962e+06 -757742 -795871 -877414 -1.00517e+06
          -1.15112e+06 -1.16287e+06 -1.07997e+06 -1.00981e+06 -739312 -780278 -874986 -1.0445e+06 -1.23345e+06 -1.24098e+06 -1.0278e+06 -949382
          -705062 -737929 -809906 -920598 -964113 -942333 -878450 -844334 -663491 -684106 -723945 -771776
          -789681 -782709 -763436 -750630 -626263 -638243 -659442 -682046 -693177 -693280 -687689 -683148
          -599790 -607162 -619659 -632660 -640790 -643294 -642336 -640924 -586302 -591773 -600931 -610562
          -617430 -620598 -621119 -620771 -759826 -792726 -859898 -957958 -1.05852e+06 -1.04944e+06 -1.00563e+06 -974169
          -752669 -789413 -870191 -1.01097e+06 -1.2356e+06 -1.11945e+06 -1.01044e+06 -958392 -734069 -773401 -866197 -1.04322e+06
          -1.23189e+06 -1.21307e+06 -977832 -907849 -701154 -734303 -810603 -938726 -964669 -923740 -853740 -820340
          -660505 -681362 -722925 -774634 -786639 -773258 -751076 -737705 -623788 -635706 -657080 -679958
          -689243 -687315 -680596 -675695 -597631 -604812 -617038 -629694 -637091 -638904 -637554 -636005
          -584310 -589562 -598362 -607587 -614026 -616879 -617249 -616860 -757860 -790760 -857851 -951687
          -1.02512e+06 -1.01558e+06 -976549 -949509 -751126 -789090 -874584 -1.01844e+06 -1.1187e+06 -1.0488e+06 -971530 -931513
          -733620 -777644 -896641 -1.20955e+06 -1.23186e+06 -1.06041e+06 -933844 -883987 -701625 -741607 -857987 -1.22518e+06
          -1.01239e+06 -902960 -836887 -806901 -660365 -684034 -736622 -817183 -798832 -769327 -744270 -730719
          -623118 -635828 -659537 -686012 -690697 -685070 -676998 -671751 -596759 -604085 -616687 -629696
          -636132 -636981 -635138 -633417 -583393 -588625 -597403 -606538 -612620 -615113 -615271 -614798
        </DataArray>
        <DataArray type="Float32" Name="saturation" NumberOfComponents="1" format="ascii">
          0.750571 0.750249 0.749686 0.74903 0.748455 0.748084 0.747916 0.747867 0.750666 0.750337 0.74976 0.749084
          0.748499 0.748136 0.747988 0.747956 0.750879 0.750548 0.749965 0.749281 0.748693 0.748342 0.748221 0.748207
          0.751222 0.750908 0.750357 0.749716 0.749164 0.748827 0.74871 0.748698 0.751665 0.751384 0.750897 0.750336
          0.749857 0.749552 0.749429 0.749404 0.75213 0.75189 0.751476 0.751005 0.750601 0.750335 0.750209 0.75017
          0.752519 0.752313 0.751961 0.751562 0.751217 0.75098 0.750854 0.750807 0.75274 0.752554 0.752237 0.751877
          0.751562 0.75134 0.751215 0.751164 0.749606 0.749202 0.74849 0.747661 0.746967 0.746584 0.746477 0.746484
          0.749687 0.749263 0.748507 0.747616 0.746878 0.746514 0.746465 0.746514 0.749891 0.749451 0.748659 0.74771
          0.746923 0.74658 0.746604 0.746705 0.750253 0.749834 0.749087 0.748208 0.74748 0.747113 0.747124 0.747227
          0.750745 0.750375 0.749726 0.748987 0.748396 0.748077 0.748032 0.748084 0.751278 0.750969 0.750436 0.749845
          0.749381 0.749117 0.749038 0.749044 0.751732 0.751476 0.751042 0.750566 0.750186 0.749956 0.74986 0.749839
          0.751992 0.751768 0.751388 0.750972 0.750633 0.750418 0.750315 0.750282 0.747729 0.747144 0.746097 0.744866
          0.743893 0.743515 0.743586 0.743739 0.747772 0.747129 0.745945 0.744495 0.743347 0.743046 0.74332 0.743605
          0.747945 0.747244 0.745909 0.744174 0.742743 0.742536 0.743125 0.743602 0.748343 0.74767 0.746423 0.744888
          0.743644 0.743143 0.74366 0.744153 0.748934 0.748346 0.747288 0.746072 0.745227 0.744873 0.745086 0.745377
          0.74961 0.749134 0.748305 0.747406 0.746839 0.746608 0.746667 0.746798 0.750203 0.749832 0.749203 0.748544
          0.748112 0.747921 0.747908 0.747954 0.750549 0.750237 0.749718 0.749178 0.748801 0.748617 0.748573 0.748585
          0.745056 0.74418 0.742565 0.740607 0.739127 0.738833 0.739298 0.739739 0.745026 0.744003 0.742004 0.73932
          0.737197 0.73726 0.738431 0.739262 0.745128 0.743931 0.741403 0.737375 0.733628 0.73448 0.73722 0.738765
          0.745566 0.744415 0.742121 0.738987 0.736358 0.734903 0.737483 0.739222 0.746303 0.745288 0.74334 0.740954
          0.739778 0.739321 0.740229 0.741181 0.747206 0.746404 0.744937 0.743311 0.742751 0.742691 0.743069 0.743489
          0.748031 0.747445 0.746436 0.74541 0.744979 0.744929 0.745095 0.745277 0.748517 0.748056 0.747288 0.746532
          0.746138 0.746049 0.746124 0.746218 0.741825 0.740576 0.738203 0.735208 0.733028 0.732941 0.734013 0.734858
          0.741688 0.740138 0.736876 0.731843 0.727771 0.729019 0.732091 0.733856 0.741674 0.739701 0.734839 0.723148
          0.709644 0.717372 0.72837 0.732404 0.742151 0.740238 0.736043 0.729338 0.723691 0.714332 0.726696 0.732294
          0.743058 0.741298 0.737466 0.731667 0.73142 0.730705 0.732863 0.735582 0.744267 0.74289 0.74006 0.736296
          0.736873 0.737498 0.738403 0.739402 0.745423 0.744494 0.742794 0.740994 0.740887 0.74124 0.74171 0.742119
          0.746111 0.74543 0.744276 0.743172 0.742858 0.742986 0.743256 0.743477 0.738404 0.736813 0.733783 0.730011
          0.727604 0.727429 0.728726 0.729821 0.738172 0.736138 0.7318 0.725141 0.722044 0.722909 0.726191 0.728461
          0.738055 0.735332 0.728264 0.710258 0.708875 0.71071 0.720316 0.726139 0.738577 0.735803 0.729232 0.717721
          0.715576 0.713465 0.7099 0.72457 0.739664 0.736889 0.729475 0.710194 0.721808 0.724122 0.721761 0.729588
          0.741221 0.739037 0.733532 0.720895 0.729511 0.732433 0.733499 0.73539 0.742767 0.74141 0.738672 0.735196
          0.736385 0.737579 0.738401 0.739075 0.743684 0.742761 0.741138 0.739549 0.739495 0.739966 0.740469 0.740823
          0.735165 0.733341 0.729947 0.72589 0.723148 0.722628 0.723989 0.72519 0.734902 0.732589 0.727906 0.721546
          0.718448 0.719191 0.721974 0.72408 0.734798 0.731716 0.724389 0.709955 0.708715 0.711758 0.717887 0.722465
          0.735487 0.732235 0.724361 0.708896 0.70815 0.708754 0.712541 0.722309 0.736879 0.733709 0.725556 0.708787
          0.716384 0.720843 0.723669 0.727662 0.73876 0.736184 0.729244 0.71042 0.724725 0.729395 0.731551 0.733146
          0.740599 0.739037 0.735765 0.731227 0.733286 0.735038 0.736189 0.736908 0.741677 0.740639 0.738788 0.736938
          0.737033 0.737702 0.73835 0.738761 0.732371 0.730354 0.726688 0.722515 0.719017 0.71719 0.719346 0.720909
          0.732109 0.729532 0.724572 0.719258 0.715497 0.715148 0.718284 0.720322 0.73211 0.728644 0.720919 0.712917
          0.70873 0.708733 0.716425 0.719943 0.733236 0.729985 0.722837 0.712441 0.708544 0.709283 0.717728 0.722141
          0.735095 0.732181 0.725046 0.709296 0.713469 0.720565 0.724758 0.727201 0.737309 0.735187 0.730528 0.723503
          0.725878 0.728893 0.730956 0.732159 0.739265 0.737928 0.735409 0.732644 0.73297 0.734098 0.735092 0.735693
          0.740378 0.739444 0.737849 0.736341 0.73612 0.736567 0.737119 0.737478 0.730242 0.728023 0.723961 0.719536
          0.714727 0.708488 0.714377 0.716909 0.729981 0.726937 0.720663 0.716154 0.712572 0.710642 0.714545 0.716551
          0.730062 0.725293 0.709692 0.708562 0.708598 0.708334 0.714548 0.716535 0.731826 0.728546 0.721432 0.714809
          0.708782 0.714224 0.719257 0.721448 0.734231 0.731909 0.727226 0.721378 0.720231 0.723093 0.725693 0.727097
          0.736683 0.735119 0.732189 0.728958 0.728622 0.729845 0.731123 0.731888 0.738656 0.737636 0.735871 0.734137
          0.733749 0.734196 0.73481 0.735213 0.739739 0.738989 0.737751 0.736588 0.736161 0.736306 0.736644 0.73689
          0.729025 0.726837 0.722851 0.718223 0.713138 0.70788 0.71184 0.714103 0.728945 0.726166 0.720852 0.715706
          0.710988 0.707993 0.711292 0.712749 0.729396 0.725735 0.717508 0.711439 0.708654 0.709311 0.711833 0.709029
          0.731372 0.728587 0.723007 0.717024 0.715106 0.717264 0.719466 0.720016 0.734019 0.732163 0.728735 0.725098
          0.724035 0.725072 0.726383 0.727096 0.736568 0.735378 0.733308 0.731236 0.730528 0.730905 0.731568 0.732005
          0.738515 0.737734 0.736431 0.735169 0.73461 0.73467 0.734972 0.735205 0.739558 0.738965 0.737999 0.737066
          0.736569 0.736504 0.736652 0.736791 0.72854 0.726391 0.72241 0.717842 0.713484 0.710086 0.711601 0.713509
          0.728586 0.725808 0.720085 0.714796 0.710598 0.707798 0.709316 0.712521 0.729202 0.725241 0.712878 0.708101
          0.708534 0.708471 0.708592 0.712172 0.731354 0.728546 0.721892 0.71056 0.715757 0.717839 0.719473 0.720997
          0.734133 0.732446 0.729185 0.725343 0.725349 0.726106 0.727031 0.727703 0.736713 0.735709 0.733963 0.732187
          0.731591 0.73172 0.732121 0.732433 0.738626 0.737984 0.736918 0.735862 0.735303 0.735205 0.735343 0.735482
          0.739633 0.739145 0.738348 0.737551 0.737049 0.736881 0.736913 0.736981 0.728625 0.726642 0.72292 0.718314
          0.714216 0.711625 0.71225 0.714456 0.728858 0.726481 0.721686 0.715465 0.710919 0.708015 0.708352 0.713945
          0.729737 0.726836 0.719895 0.708716 0.708751 0.708027 0.713028 0.716819 0.731811 0.729473 0.724107 0.713647
          0.717191 0.718958 0.72138 0.723019 0.734491 0.733026 0.730198 0.726715 0.726496 0.727078 0.728036 0.728718
          0.736995 0.736121 0.734597 0.733011 0.732405 0.732437 0.732768 0.733042 0.738848 0.738292 0.737363 0.736423
          0.735877 0.735722 0.735795 0.735894 0.739819 0.739397 0.738701 0.737988 0.737502 0.737293 0.737271 0.737305
          0.728933 0.7271 0.72363 0.719167 0.715164 0.714038 0.715245 0.716773 0.729297 0.727232 0.72312 0.717377
          0.711645 0.711216 0.714343 0.717182 0.730332 0.728065 0.723237 0.715754 0.708726 0.708469 0.716436 0.71979
          0.732322 0.73041 0.726496 0.721091 0.71914 0.720105 0.72307 0.724741 0.734865 0.733585 0.731213 0.728525
          0.72756 0.727934 0.728982 0.729693 0.737274 0.736485 0.735121 0.733712 0.733034 0.733028 0.733367 0.733644
          0.739071 0.738563 0.737716 0.736851 0.736319 0.736156 0.736218 0.73631 0.740015 0.73963 0.738992 0.738331
          0.737866 0.737653 0.737618 0.737641 0.729182 0.727398 0.723971 0.71941 0.715191 0.715555 0.717358 0.718701
          0.729579 0.727575 0.723468 0.717134 0.708652 0.712824 0.717156 0.719391 0.73063 0.728437 0.723663 0.715806
          0.708779 0.70943 0.718543 0.72168 0.732555 0.730617 0.726459 0.720267 0.719115 0.720947 0.724274 0.725956
          0.735054 0.733754 0.731273 0.72837 0.727723 0.728445 0.729668 0.730423 0.737439 0.736651 0.735271 0.73384
          0.733272 0.73339 0.733801 0.734103 0.739221 0.738724 0.737892 0.737047 0.73656 0.736441 0.73653 0.736631
          0.740156 0.739785 0.73917 0.738534 0.738096 0.737903 0.737878 0.737904 0.729291 0.727503 0.724071 0.719688
          0.716546 0.716941 0.718598 0.719785 0.729666 0.727592 0.723256 0.716823 0.712853 0.715581 0.718816 0.720593
          0.730656 0.728207 0.722205 0.709552 0.70878 0.715115 0.720488 0.722805 0.732527 0.730201 0.724064 0.70901
          0.717075 0.721908 0.725114 0.726652 0.735062 0.73359 0.730485 0.726119 0.727075 0.728659 0.730051 0.730823
          0.737484 0.736643 0.735115 0.733469 0.733184 0.733527 0.734022 0.734348 0.739281 0.738774 0.737916 0.737047
          0.736623 0.736567 0.736688 0.736801 0.740221 0.739851 0.739236 0.738606 0.738191 0.738022 0.738011 0.738043
        </DataArray>
        <DataArray type="Float32" Name="process rank" NumberOfComponents="1" format="ascii">
          0 0 0 0 0 0 0 0 0 0 0 0
          0 0 0 0 0 0 0 0 0 0 0 0
          0 0 0 0 0 0 0 0 0 0 0 0
          0 0 0 0 0 0 0 0 0 0 0 0
          0 0 0 0 0 0 0 0 0 0 0 0
          0 0 0 0 0 0 0 0 0 0 0 0
          0 0 0 0 0 0 0 0 0 0 0 0
          0 0 0 0 0 0 0 0 0 0 0 0
          0 0 0 0 0 0 0 0 0 0 0 0
          0 0 0 0 0 0 0 0 0 0 0 0
          0 0 0 0 0 0 0 0 0 0 0 0
          0 0 0 0 0 0 0 0 0 0 0 0
          0 0 0 0 0 0 0 0 0 0 0 0
          0 0 0 0 0 0 0 0 0 0 0 0
          0 0 0 0 0 0 0 0 0 0 0 0
          0 0 0 0 0 0 0 0 0 0 0 0
          0 0 0 0 0 0 0 0 0 0 0 0
          0 0 0 0 0 0 0 0 0 0 0 0
          0 0 0 0 0 0 0 0 0 0 0 0
          0 0 0 0 0 0 0 0 0 0 0 0
          0 0 0 0 0 0 0 0 0 0 0 0
          0 0 0 0 0 0 0 0 0 0 0 0
          0 0 0 0 0 0 0 0 0 0 0 0
          0 0 0 0 0 0 0 0 0 0 0 0
          0 0 0 0 0 0 0 0 0 0 0 0
          0 0 0 0 0 0 0 0 0 0 0 0
          0 0 0 0 0 0 0 0 0 0 0 0
          0 0 0 0 0 0 0 0 0 0 0 0
          0 0 0 0 0 0 0 0 0 0 0 0
          0 0 0 0 0 0 0 0 0 0 0 0
          0 0 0 0 0 0 0 0 0 0 0 0
          0 0 0 0 0 0 0 0 0 0 0 0
          0 0 0 0 0 0 0 0 0 0 0 0
          0 0 0 0 0 0 0 0 0 0 0 0
          0 0 0 0 0 0 0 0 0 0 0 0
          0 0 0 0 0 0 0 0 0 0 0 0
          0 0 0 0 0 0 0 0 0 0 0 0
          0 0 0 0 0 0 0 0 0 0 0 0
          0 0 0 0 0 0 0 0 0 0 0 0
          0 0 0 0 0 0 0 0 0 0 0 0
          0 0 0 0 0 0 0 0 0 0 0 0
          0 0 0 0 0 0 0 0 0 0 0 0
          0 0 0 0 0 0 0 0 0 0 0 0
          0 0 0 0 0 0 0 0 0 0 0 0
          0 0 0 0 0 0 0 0 0 0 0 0
          0 0 0 0 0 0 0 0 0 0 0 0
          0 0 0 0 0 0 0 0 0 0 0 0
          0 0 0 0 0 0 0 0 0 0 0 0
          0 0 0 0 0 0 0 0 0 0 0 0
          0 0 0 0 0 0 0 0 0 0 0 0
          0 0 0 0 0 0 0 0 0 0 0 0
          0 0 0 0 0 0 0 0 0 0 0 0
          0 0 0 0 0 0 0 0 0 0 0 0
          0 0 0 0 0 0 0 0 0 0 0 0
          0 0 0 0 0 0 0 0 0 0 0 0
          0 0 0 0 0 0 0 0 0 0 0 0
          0 0 0 0 0 0 0 0 0 0 0 0
          0 0 0 0 0 0 0 0 0 0 0 0
          0 0 0 0 0 0 0 0 0 0 0 0
          0 0 0 0 0 0 0 0 0 0 0 0
          0 0 0 0 0 0 0 0 0 0 0 0
          0 0 0 0 0 0 0 0 0 0 0 0
          0 0 0 0 0 0 0 0 0 0 0 0
          0 0 0 0 0 0 0 0 0 0 0 0
          0 0 0 0 0 0 0 0 0 0 0 0
          0 0 0 0 0 0 0 0 0 0 0 0
          0 0 0 0 0 0 0 0 0 0 0 0
          0 0 0 0 0 0 0 0 0 0 0 0
          0 0 0 0 0 0 0 0 0 0 0 0
          0 0 0 0 0 0 0 0 0 0 0 0
          0 0 0 0 0 0 0 0 0 0 0 0
          0 0 0 0 0 0 0 0 0 0 0 0
          0 0 0 0 0 0 0 0 0 0 0 0
          0 0 0 0 0 0 0 0 0 0 0 0
          0 0 0 0 0 0 0 0 0 0 0 0
          0 0 0 0 0 0 0 0 0 0 0 0
          0 0 0 0 0 0 0 0 0 0 0 0
          0 0 0 0 0 0 0 0 0 0 0 0
          0 0 0 0 0 0 0 0 0 0 0 0
          0 0 0 0 0 0 0 0 0 0 0 0
        </DataArray>
      </CellData>
      <Points>
        <DataArray type="Float32" Name="Coordinates" NumberOfComponents="3" format="ascii">
          -0.04 -0.04 -0.15 -0.03 -0.04 -0.15 -0.04 -0.03 -0.15 -0.03 -0.03 -0.15
          -0.04 -0.04 -0.14 -0.03 -0.04 -0.14 -0.04 -0.03 -0.14 -0.03 -0.03 -0.14
          -0.02 -0.04 -0.15 -0.02 -0.03 -0.15 -0.02 -0.04 -0.14 -0.02 -0.03 -0.14
          -0.01 -0.04 -0.15 -0.01 -0.03 -0.15 -0.01 -0.04 -0.14 -0.01 -0.03 -0.14
          -1.73472e-18 -0.04 -0.15 -1.73472e-18 -0.03 -0.15 -1.73472e-18 -0.04 -0.14 -1.73472e-18 -0.03 -0.14
          0.01 -0.04 -0.15 0.01 -0.03 -0.15 0.01 -0.04 -0.14 0.01 -0.03 -0.14
          0.02 -0.04 -0.15 0.02 -0.03 -0.15 0.02 -0.04 -0.14 0.02 -0.03 -0.14
          0.03 -0.04 -0.15 0.03 -0.03 -0.15 0.03 -0.04 -0.14 0.03 -0.03 -0.14
          0.04 -0.04 -0.15 0.04 -0.03 -0.15 0.04 -0.04 -0.14 0.04 -0.03 -0.14
          -0.04 -0.02 -0.15 -0.03 -0.02 -0.15 -0.04 -0.02 -0.14 -0.03 -0.02 -0.14
          -0.02 -0.02 -0.15 -0.02 -0.02 -0.14 -0.01 -0.02 -0.15 -0.01 -0.02 -0.14
          -1.73472e-18 -0.02 -0.15 -1.73472e-18 -0.02 -0.14 0.01 -0.02 -0.15 0.01 -0.02 -0.14
          0.02 -0.02 -0.15 0.02 -0.02 -0.14 0.03 -0.02 -0.15 0.03 -0.02 -0.14
          0.04 -0.02 -0.15 0.04 -0.02 -0.14 -0.04 -0.01 -0.15 -0.03 -0.01 -0.15
          -0.04 -0.01 -0.14 -0.03 -0.01 -0.14 -0.02 -0.01 -0.15 -0.02 -0.01 -0.14
          -0.01 -0.01 -0.15 -0.01 -0.01 -0.14 -1.73472e-18 -0.01 -0.15 -1.73472e-18 -0.01 -0.14
          0.01 -0.01 -0.15 0.01 -0.01 -0.14 0.02 -0.01 -0.15 0.02 -0.01 -0.14
          0.03 -0.01 -0.15 0.03 -0.01 -0.14 0.04 -0.01 -0.15 0.04 -0.01 -0.14
          -0.04 -1.73472e-18 -0.15 -0.03 -1.73472e-18 -0.15 -0.04 -1.73472e-18 -0.14 -0.03 -1.73472e-18 -0.14
          -0.02 -1.73472e-18 -0.15 -0.02 -1.73472e-18 -0.14 -0.01 -1.73472e-18 -0.15 -0.01 -1.73472e-18 -0.14
          -1.73472e-18 -1.73472e-18 -0.15 -1.73472e-18 -1.73472e-18 -0.14 0.01 -1.73472e-18 -0.15 0.01 -1.73472e-18 -0.14
          0.02 -1.73472e-18 -0.15 0.02 -1.73472e-18 -0.14 0.03 -1.73472e-18 -0.15 0.03 -1.73472e-18 -0.14
          0.04 -1.73472e-18 -0.15 0.04 -1.73472e-18 -0.14 -0.04 0.01 -0.15 -0.03 0.01 -0.15
          -0.04 0.01 -0.14 -0.03 0.01 -0.14 -0.02 0.01 -0.15 -0.02 0.01 -0.14
          -0.01 0.01 -0.15 -0.01 0.01 -0.14 -1.73472e-18 0.01 -0.15 -1.73472e-18 0.01 -0.14
          0.01 0.01 -0.15 0.01 0.01 -0.14 0.02 0.01 -0.15 0.02 0.01 -0.14
          0.03 0.01 -0.15 0.03 0.01 -0.14 0.04 0.01 -0.15 0.04 0.01 -0.14
          -0.04 0.02 -0.15 -0.03 0.02 -0.15 -0.04 0.02 -0.14 -0.03 0.02 -0.14
          -0.02 0.02 -0.15 -0.02 0.02 -0.14 -0.01 0.02 -0.15 -0.01 0.02 -0.14
          -1.73472e-18 0.02 -0.15 -1.73472e-18 0.02 -0.14 0.01 0.02 -0.15 0.01 0.02 -0.14
          0.02 0.02 -0.15 0.02 0.02 -0.14 0.03 0.02 -0.15 0.03 0.02 -0.14
          0.04 0.02 -0.15 0.04 0.02 -0.14 -0.04 0.03 -0.15 -0.03 0.03 -0.15
          -0.04 0.03 -0.14 -0.03 0.03 -0.14 -0.02 0.03 -0.15 -0.02 0.03 -0.14
          -0.01 0.03 -0.15 -0.01 0.03 -0.14 -1.73472e-18 0.03 -0.15 -1.73472e-18 0.03 -0.14
          0.01 0.03 -0.15 0.01 0.03 -0.14 0.02 0.03 -0.15 0.02 0.03 -0.14
          0.03 0.03 -0.15 0.03 0.03 -0.14 0.04 0.03 -0.15 0.04 0.03 -0.14
          -0.04 0.04 -0.15 -0.03 0.04 -0.15 -0.04 0.04 -0.14 -0.03 0.04 -0.14
          -0.02 0.04 -0.15 -0.02 0.04 -0.14 -0.01 0.04 -0.15 -0.01 0.04 -0.14
          -1.73472e-18 0.04 -0.15 -1.73472e-18 0.04 -0.14 0.01 0.04 -0.15 0.01 0.04 -0.14
          0.02 0.04 -0.15 0.02 0.04 -0.14 0.03 0.04 -0.15 0.03 0.04 -0.14
          0.04 0.04 -0.15 0.04 0.04 -0.14 -0.04 -0.04 -0.13 -0.03 -0.04 -0.13
          -0.04 -0.03 -0.13 -0.03 -0.03 -0.13 -0.02 -0.04 -0.13 -0.02 -0.03 -0.13
          -0.01 -0.04 -0.13 -0.01 -0.03 -0.13 -1.73472e-18 -0.04 -0.13 -1.73472e-18 -0.03 -0.13
          0.01 -0.04 -0.13 0.01 -0.03 -0.13 0.02 -0.04 -0.13 0.02 -0.03 -0.13
          0.03 -0.04 -0.13 0.03 -0.03 -0.13 0.04 -0.04 -0.13 0.04 -0.03 -0.13
          -0.04 -0.02 -0.13 -0.03 -0.02 -0.13 -0.02 -0.02 -0.13 -0.01 -0.02 -0.13
          -1.73472e-18 -0.02 -0.13 0.01 -0.02 -0.13 0.02 -0.02 -0.13 0.03 -0.02 -0.13
          0.04 -0.02 -0.13 -0.04 -0.01 -0.13 -0.03 -0.01 -0.13 -0.02 -0.01 -0.13
          -0.01 -0.01 -0.13 -1.73472e-18 -0.01 -0.13 0.01 -0.01 -0.13 0.02 -0.01 -0.13
          0.03 -0.01 -0.13 0.04 -0.01 -0.13 -0.04 -1.73472e-18 -0.13 -0.03 -1.73472e-18 -0.13
          -0.02 -1.73472e-18 -0.13 -0.01 -1.73472e-18 -0.13 -1.73472e-18 -1.73472e-18 -0.13 0.01 -1.73472e-18 -0.13
          0.02 -1.73472e-18 -0.13 0.03 -1.73472e-18 -0.13 0.04 -1.73472e-18 -0.13 -0.04 0.01 -0.13
          -0.03 0.01 -0.13 -0.02 0.01 -0.13 -0.01 0.01 -0.13 -1.73472e-18 0.01 -0.13
          0.01 0.01 -0.13 0.02 0.01 -0.13 0.03 0.01 -0.13 0.04 0.01 -0.13
          -0.04 0.02 -0.13 -0.03 0.02 -0.13 -0.02 0.02 -0.13 -0.01 0.02 -0.13
          -1.73472e-18 0.02 -0.13 0.01 0.02 -0.13 0.02 0.02 -0.13 0.03 0.02 -0.13
          0.04 0.02 -0.13 -0.04 0.03 -0.13 -0.03 0.03 -0.13 -0.02 0.03 -0.13
          -0.01 0.03 -0.13 -1.73472e-18 0.03 -0.13 0.01 0.03 -0.13 0.02 0.03 -0.13
          0.03 0.03 -0.13 0.04 0.03 -0.13 -0.04 0.04 -0.13 -0.03 0.04 -0.13
          -0.02 0.04 -0.13 -0.01 0.04 -0.13 -1.73472e-18 0.04 -0.13 0.01 0.04 -0.13
          0.02 0.04 -0.13 0.03 0.04 -0.13 0.04 0.04 -0.13 -0.04 -0.04 -0.12
          -0.03 -0.04 -0.12 -0.04 -0.03 -0.12 -0.03 -0.03 -0.12 -0.02 -0.04 -0.12
          -0.02 -0.03 -0.12 -0.01 -0.04 -0.12 -0.01 -0.03 -0.12 -1.73472e-18 -0.04 -0.12
          -1.73472e-18 -0.03 -0.12 0.01 -0.04 -0.12 0.01 -0.03 -0.12 0.02 -0.04 -0.12
          0.02 -0.03 -0.12 0.03 -0.04 -0.12 0.03 -0.03 -0.12 0.04 -0.04 -0.12
          0.04 -0.03 -0.12 -0.04 -0.02 -0.12 -0.03 -0.02 -0.12 -0.02 -0.02 -0.12
          -0.01 -0.02 -0.12 -1.73472e-18 -0.02 -0.12 0.01 -0.02 -0.12 0.02 -0.02 -0.12
          0.03 -0.02 -0.12 0.04 -0.02 -0.12 -0.04 -0.01 -0.12 -0.03 -0.01 -0.12
          -0.02 -0.01 -0.12 -0.01 -0.01 -0.12 -1.73472e-18 -0.01 -0.12 0.01 -0.01 -0.12
          0.02 -0.01 -0.12 0.03 -0.01 -0.12 0.04 -0.01 -0.12 -0.04 -1.73472e-18 -0.12
          -0.03 -1.73472e-18 -0.12 -0.02 -1.73472e-18 -0.12 -0.01 -1.73472e-18 -0.12 -1.73472e-18 -1.73472e-18 -0.12
          0.01 -1.73472e-18 -0.12 0.02 -1.73472e-18 -0.12 0.03 -1.73472e-18 -0.12 0.04 -1.73472e-18 -0.12
          -0.04 0.01 -0.12 -0.03 0.01 -0.12 -0.02 0.01 -0.12 -0.01 0.01 -0.12
          -1.73472e-18 0.01 -0.12 0.01 0.01 -0.12 0.02 0.01 -0.12 0.03 0.01 -0.12
          0.04 0.01 -0.12 -0.04 0.02 -0.12 -0.03 0.02 -0.12 -0.02 0.02 -0.12
          -0.01 0.02 -0.12 -1.73472e-18 0.02 -0.12 0.01 0.02 -0.12 0.02 0.02 -0.12
          0.03 0.02 -0.12 0.04 0.02 -0.12 -0.04 0.03 -0.12 -0.03 0.03 -0.12
          -0.02 0.03 -0.12 -0.01 0.03 -0.12 -1.73472e-18 0.03 -0.12 0.01 0.03 -0.12
          0.02 0.03 -0.12 0.03 0.03 -0.12 0.04 0.03 -0.12 -0.04 0.04 -0.12
          -0.03 0.04 -0.12 -0.02 0.04 -0.12 -0.01 0.04 -0.12 -1.73472e-18 0.04 -0.12
          0.01 0.04 -0.12 0.02 0.04 -0.12 0.03 0.04 -0.12 0.04 0.04 -0.12
          -0.04 -0.04 -0.11 -0.03 -0.04 -0.11 -0.04 -0.03 -0.11 -0.03 -0.03 -0.11
          -0.02 -0.04 -0.11 -0.02 -0.03 -0.11 -0.01 -0.04 -0.11 -0.01 -0.03 -0.11
          -1.73472e-18 -0.04 -0.11 -1.73472e-18 -0.03 -0.11 0.01 -0.04 -0.11 0.01 -0.03 -0.11
          0.02 -0.04 -0.11 0.02 -0.03 -0.11 0.03 -0.04 -0.11 0.03 -0.03 -0.11
          0.04 -0.04 -0.11 0.04 -0.03 -0.11 -0.04 -0.02 -0.11 -0.03 -0.02 -0.11
          -0.02 -0.02 -0.11 -0.01 -0.02 -0.11 -1.73472e-18 -0.02 -0.11 0.01 -0.02 -0.11
          0.02 -0.02 -0.11 0.03 -0.02 -0.11 0.04 -0.02 -0.11 -0.04 -0.01 -0.11
          -0.03 -0.01 -0.11 -0.02 -0.01 -0.11 -0.01 -0.01 -0.11 -1.73472e-18 -0.01 -0.11
          0.01 -0.01 -0.11 0.02 -0.01 -0.11 0.03 -0.01 -0.11 0.04 -0.01 -0.11
          -0.04 -1.73472e-18 -0.11 -0.03 -1.73472e-18 -0.11 -0.02 -1.73472e-18 -0.11 -0.01 -1.73472e-18 -0.11
          -1.73472e-18 -1.73472e-18 -0.11 0.01 -1.73472e-18 -0.11 0.02 -1.73472e-18 -0.11 0.03 -1.73472e-18 -0.11
          0.04 -1.73472e-18 -0.11 -0.04 0.01 -0.11 -0.03 0.01 -0.11 -0.02 0.01 -0.11
          -0.01 0.01 -0.11 -1.73472e-18 0.01 -0.11 0.01 0.01 -0.11 0.02 0.01 -0.11
          0.03 0.01 -0.11 0.04 0.01 -0.11 -0.04 0.02 -0.11 -0.03 0.02 -0.11