<?xml version="1.0"?><VTKFile type="PolyData" version="0.1" byte_order="LittleEndian">
<PolyData>
<Piece NumberOfLines="227" NumberOfPoints="228">
<CellData Scalars=" CellData">
<DataArray type="Float32" Name="radius" NumberOfComponents="1" format="ascii" >
0.05 0.05 0.05 0.05 0.05 0.05 0.05 0.05 0.05 0.05 0.05 0.05 0.05 0.05 0.05 0.05 0.05 0.05 0.05 0.05 0.02 0.02 0.02 0.02 0.02 0.02 0.02 0.02 0.02 0.02 0.02 0.02 0.02 0.02 0.02 0.02 0.02 0.02 0.02 0.02 0.02 0.02 0.02 0.02 0.02 0.02 0.02 0.02 0.02 0.02 0.02 0.02 0.02 0.02 0.02 0.02 0.02 0.02 0.02 0.02 0.02 0.02 0.02 0.02 0.02 0.02 0.02 0.02 0.02 0.02 0.02 0.02 0.02 0.02 0.02 0.02 0.02 0.02 0.02 0.02 0.02 0.02 0.02 0.02 0.02 0.02 0.02 0.02 0.02 0.05 0.05 0.05 0.05 0.05 0.05 0.05 0.05 0.05 0.05 0.05 0.05 0.05 0.05 0.05 0.05 0.05 0.05 0.05 0.02 0.02 0.02 0.02 0.02 0.02 0.02 0.02 0.02 0.02 0.02 0.02 0.02 0.02 0.02 0.02 0.02 0.02 0.02 0.02 0.02 0.02 0.02 0.02 0.02 0.02 0.02 0.02 0.02 0.02 0.02 0.02 0.02 0.02 0.02 0.02 0.02 0.02 0.02 0.02 0.02 0.02 0.02 0.02 0.02 0.02 0.02 0.02 0.02 0.02 0.02 0.05 0.05 0.05 0.05 0.05 0.05 0.05 0.05 0.05 0.05 0.05 0.05 0.05 0.05 0.02 0.02 0.02 0.02 0.02 0.02 0.02 0.02 0.02 0.02 0.02 0.05 0.05 0.05 0.05 0.05 0.05 0.05 0.05 0.05 0.15 0.15 0.15 0.15 0.15 0.15 0.03 0.03 0.03 0.03 0.03 0.03 0.03 0.03 0.03 0.03 0.03 0.03 0.03 0.15 0.15 0.15 0.15 0.15 0.15 0.15 0.15 0.15 0.03 0.03 0.03 0.03 0.03 0.03 
</DataArray>
<DataArray type="Float32" Name="subType" NumberOfComponents="1" format="ascii" >
1 1 1 1 1 1 1 1 1 1 1 1 1 1 1 1 1 1 1 1 2 2 2 2 2 2 2 2 2 2 2 2 2 2 2 2 2 2 2 2 2 2 2 2 2 2 2 2 2 2 2 2 2 2 2 2 2 2 2 2 2 2 2 2 2 2 2 2 2 2 2 2 2 2 2 2 2 2 2 2 2 2 2 2 2 2 2 2 2 4 4 4 4 4 4 4 4 4 4 4 4 4 4 4 4 4 4 4 2 2 2 2 2 2 2 2 2 2 2 2 2 2 2 2 2 2 2 2 2 2 2 2 2 2 2 2 2 2 2 2 2 2 2 2 2 2 2 2 2 2 2 2 2 2 2 2 2 2 2 4 4 4 4 4 4 4 4 4 4 4 4 4 4 2 2 2 2 2 2 2 2 2 2 2 4 4 4 4 4 4 4 4 4 1 1 1 1 1 1 1 1 1 1 1 1 1 1 1 1 1 1 1 4 4 4 4 4 4 4 4 4 1 1 1 1 1 1 
</DataArray>
<DataArray type="Float32" Name="creationTime" NumberOfComponents="1" format="ascii" >
0.420178 0.847539 1.28233 1.72482 2.17528 2.63401 3.10132 3.57752 4.06297 4.55804 5.06311 5.57859 6.10492 6.64258 7.19205 7.75387 8.32861 8.91687 9.51931 10.125 5.47378 6.65161 7.98693 9.52843 5.47378 6.65161 7.98693 9.52843 5.90114 7.07897 8.41429 9.83333 5.90114 7.07897 8.41429 9.83333 6.33594 7.51377 8.84908 10.0833 6.33594 7.51377 8.84908 10.0833 6.77843 7.95626 9.29157 10.3333 6.77843 7.95626 9.29157 10.3333 7.22889 8.40672 9.70833 7.22889 8.40672 9.70833 7.68762 8.86545 9.95833 7.68762 8.86545 9.95833 8.15492 9.33275 10.25 8.15492 9.33275 10.25 8.63113 9.75 10.5417 8.63113 9.75 10.5417 9.11658 10.0417 9.11658 10.0417 9.58333 10.2917 9.61164 10.3333 9.79167 10.4583 10.1167 10 10.5417 1.42018 1.84754 2.28233 2.72482 3.17528 3.63401 4.10132 4.57752 5.06297 5.55804 6.06311 6.57859 7.10492 7.64258 8.19205 8.75387 9.32861 9.91667 10.4583 6.47378 7.65161 8.98693 10.1667 6.47378 7.65161 8.98693 10.1667 6.90114 8.07897 9.41429 10.4167 6.90114 8.07897 9.41429 10.4167 7.33594 8.51377 9.75 7.33594 8.51377 9.75 7.77843 8.95626 10 7.77843 8.95626 10 8.22889 9.40672 10.2917 8.22889 9.40672 10.2917 8.68762 9.75 8.68762 9.75 9.15492 10.0417 9.15492 10.0417 9.58333 10.2917 9.63113 10.375 9.79167 10.4583 10.1166 10 10.5 4.42018 4.84754 5.28233 5.72482 6.17528 6.63401 7.10132 7.57752 8.06297 8.55804 9.06311 9.57859 10.0833 10.5417 9.47378 10.2083 9.47378 10.2083 9.70833 10.375 9.90114 9.875 10.5417 10.2917 10.125 7.42018 7.84754 8.28233 8.72482 9.17528 9.63401 10.0417 10.4583 10.375 1.01881 3.40403 4 2.2939 1.22722 1.33203 1.53081 2.06842 2.63434 3.23172 3.86426 4.53635 5.25328 6.02147 6.8488 7.74515 8.7231 9.79167 10.5417 1.01881 3.40403 3.54167 3.66578 3.79167 3.91667 2.2939 1.22722 1.33203 1.53081 2.06842 2.63434 3.23172 3.86426 4.41667 
</DataArray>
<DataArray type="Float32" Name="organType" NumberOfComponents="1" format="ascii" >
2 2 2 2 2 2 2 2 2 2 2 2 2 2 2 2 2 2 2 2 2 2 2 2 2 2 2 2 2 2 2 2 2 2 2 2 2 2 2 2 2 2 2 2 2 2 2 2 2 2 2 2 2 2 2 2 2 2 2 2 2 2 2 2 2 2 2 2 2 2 2 2 2 2 2 2 2 2 2 2 2 2 2 2 2 2 2 2 2 2 2 2 2 2 2 2 2 2 2 2 2 2 2 2 2 2 2 2 2 2 2 2 2 2 2 2 2 2 2 2 2 2 2 2 2 2 2 2 2 2 2 2 2 2 2 2 2 2 2 2 2 2 2 2 2 2 2 2 2 2 2 2 2 2 2 2 2 2 2 2 2 2 2 2 2 2 2 2 2 2 2 2 2 2 2 2 2 2 2 2 2 2 2 2 2 2 2 2 2 2 2 2 2 3 3 3 3 3 3 4 4 4 4 4 4 4 4 4 4 4 4 4 3 3 3 3 3 3 3 3 3 4 4 4 4 4 4 
</DataArray>

</CellData>
<Points>
<DataArray type="Float32" Name="Coordinates" NumberOfComponents="3" format="ascii" >
0 0 -0.3 -0.298434 -0.304855 -1.20443 -0.15398 -0.686486 -2.11739 0.25803 -1.05323 -2.95151 0.650748 -1.41329 -3.79775 0.940822 -1.69206 -4.71325 0.962068 -1.61986 -5.71042 1.09866 -1.4331 -6.68328 1.30377 -1.24679 -7.64412 1.24548 -1.06699 -8.6261 1.08407 -0.888164 -9.59665 1.09423 -0.42633 -10.4836 1.04017 -0.0780614 -11.4194 1.04372 0.269629 -12.357 1.0798 0.599437 -13.3004 1.10645 0.979985 -14.2247 1.04715 1.29865 -15.1707 1.15254 1.43179 -16.1562 1.52429 1.55991 -17.0757 1.8299 1.24385 -17.9738 2.55341 0.966804 -18.6061 0.0439223 -0.540903 -2.11387 -0.447197 -0.693829 -2.97143 -0.10434 -0.792904 -3.90558 0.0389049 -0.816147 -4.895 -0.927752 -0.975474 -1.59715 -1.50882 -1.40061 -2.29115 -1.6206 -1.18735 -3.26172 -2.40317 -1.22804 -3.88295 -0.294543 -1.27324 -2.91487 -0.318963 -1.53622 -3.87936 -0.404216 -1.80357 -4.83918 -0.475634 -1.78059 -5.83636 -0.180823 -0.389115 -3.07178 -0.077805 -0.0942563 -4.02175 0.0805064 0.222522 -4.95694 0.549002 0.304602 -5.83659 0.327213 -0.670595 -3.87281 0.40488 -0.312299 -4.80318 0.78616 -0.729255 -5.62827 1.41865 -1.12759 -6.29257 0.79638 -1.49323 -3.67024 0.535461 -1.77828 -4.59256 0.550176 -2.05227 -5.55418 0.755381 -2.42513 -6.45909 0.824602 -1.74599 -4.72462 0.981861 -1.8311 -5.7085 0.985219 -1.68196 -6.69731 1.05411 -1.35376 -7.6394 1.18814 -1.70809 -4.58788 0.906415 -1.89908 -5.52817 0.742552 -2.21467 -6.46281 0.97182 -1.79111 -7.33919 1.52527 -1.06342 -5.22631 1.86422 -0.193331 -5.58417 2.17602 0.457923 -6.27601 1.21986 -2.63449 -4.52897 1.82489 -3.24315 -5.04225 2.28188 -3.61489 -5.85032 1.32127 -1.45799 -6.62953 1.82436 -1.29819 -7.47886 2.30406 -1.14137 -8.34216 1.03856 -1.7087 -6.70352 1.10872 -1.79754 -7.69709 1.12322 -1.69491 -8.69171 1.95056 -1.52177 -7.19942 2.91204 -1.60704 -7.46074 3.33515 -1.66228 -8.36513 0.980369 -1.7733 -7.61616 0.899204 -2.0561 -8.5719 1.21867 -1.61117 -9.40855 0.896942 -1.23699 -8.55757 1.26403 -1.23012 -9.48773 1.64312 -1.23886 -10.4131 1.31959 -0.690145 -8.47472 1.6276 -0.15792 -9.2633 2.27754 0.0731161 -9.98732 0.442688 -0.660897 -9.06268 -0.385837 -0.25545 -9.44889 1.44985 -1.07372 -9.60497 1.77584 -0.994569 -10.547 0.619484 -1.37579 -10.3358 0.617107 -1.80387 -11.2396 1.14334 -1.39143 -10.4587 1.57512 -1.85739 -11.231 1.72318 0.143061 -11.0129 1.64015 0.511946 -11.9387 1.6735 -0.148616 -11.2499 1.43929 -0.0317191 -12.3351 1.45886 0.804826 -13.0927 0.376805 -0.169024 -1.21074 0.730797 -0.337997 -2.1306 1.16682 -0.538908 -3.00782 1.83721 -0.731701 -3.72434 2.11997 -0.90501 -4.66775 2.34043 -1.25736 -5.57728 2.3593 -1.6024 -6.51568 1.93829 -1.91256 -7.36805 1.8237 -2.50107 -8.16838 1.71207 -3.10023 -8.96119 1.68059 -3.501 -9.87683 1.98168 -3.93297 -10.727 1.85622 -4.25395 -11.6657 1.65767 -4.50034 -12.6143 1.6396 -4.33671 -13.6007 1.41295 -4.17669 -14.5614 1.00409 -4.40969 -15.4438 1.00025 -4.48493 -16.4409 0.761812 -4.55807 -17.4093 0.46164 -1.09732 -1.57279 0.546184 -1.41979 -2.51558 0.295117 -1.62306 -3.46197 0.0933993 -1.82607 -4.42014 0.192016 -0.755788 -1.99913 0.270034 -0.568739 -2.97838 0.360142 -0.487693 -3.97101 0.505324 -1.19007 -4.66785 1.16193 -0.591387 -2.99658 1.30223 -0.387821 -3.96553 1.33647 -0.18541 -4.94423 1.33847 -0.195414 -5.94418 1.54079 -0.869894 -2.37758 2.15513 -1.35325 -3.00123 2.20174 -1.34553 -4.00012 2.5261 -1.5568 -4.92216 1.2453 -0.648083 -3.99874 1.30502 -0.757239 -4.99097 1.26602 -0.936267 -5.97404 0.586241 -0.711368 -3.80355 0.792298 -0.654334 -4.78042 0.226729 -0.344836 -5.54485 1.98397 -0.519253 -4.69043 1.62845 -0.333947 -5.60655 1.37324 -0.2795 -6.5719 1.68851 -1.10799 -4.63883 1.50439 -1.56388 -5.50962 1.54875 -1.2149 -6.4457 2.05082 -0.735503 -5.65085 2.19358 -0.569808 -6.62664 2.41277 -0.459759 -7.59609 2.17886 -1.34327 -5.56467 2.24487 -0.942508 -6.47847 2.60989 -0.560576 -7.32752 2.80767 -2.14106 -5.54968 3.11038 -2.73735 -6.29319 2.62139 -1.50331 -6.50495 3.16406 -1.739 -7.31115 1.95163 -2.03841 -7.31798 1.80872 -1.68766 -8.24348 2.1894 -2.11783 -7.3556 2.78317 -2.47274 -8.07772 1.95707 -1.83404 -8.36479 1.77753 -1.75708 -9.34552 1.93385 -2.66787 -8.02341 1.92947 -3.31773 -8.78345 1.14393 -2.54001 -8.90077 0.480378 -2.56113 -9.6486 1.56705 -2.58001 -9.13166 1.39157 -3.70175 -9.69295 1.36223 -3.96424 -10.7039 0.287006 -0.376786 -1.18072 0.310436 -0.739965 -2.11214 -0.0706496 -0.908242 -3.02124 -0.0255409 -1.21325 -3.97252 0.251298 -1.50985 -4.88651 0.517275 -1.62136 -5.84402 0.334287 -1.72159 -6.82201 0.319726 -1.79252 -7.81939 0.298092 -1.84877 -8.81757 0.278965 -1.90101 -9.81602 0.69976 -1.94797 -10.722 1.07564 -1.84044 -11.6424 1.38213 -1.6881 -12.582 1.24118 -1.55116 -13.5625 0.600622 -0.778933 -2.0409 0.724376 -1.17784 -2.94951 -0.138755 -0.440508 -2.0833 -1.01655 -0.0916924 -2.41164 0.137276 -1.47064 -2.77254 0.0250928 -1.43324 -3.76552 0.166183 -0.984142 -3.07108 -0.756209 -0.425615 -3.56629 -0.951052 -0.34029 -4.5434 -0.997618 -0.920648 -3.39617 -0.717455 -1.91036 -4.16039 0.0419346 -0.357934 -1.2328 -0.245501 -0.696143 -2.12891 -0.170874 -1.05694 -3.05856 -0.302269 -1.21226 -4.03765 0.0137908 -1.3519 -4.97605 0.464494 -1.49004 -5.85797 0.880572 -1.43662 -6.76573 1.2959 -1.38157 -7.67374 0.21501 -0.187405 -1.25846 0.106149 -0.0206631 0.694136 0.215831 -0.0223851 1.6881 0.2779 -0.0213397 2.20466 0.396478 -0.017002 3.19759 0.408396 -0.0165283 3.29688 0.420189 -0.0157832 3.39618 0.318446 -0.0619893 2.68241 0.530744 -0.103316 4.67068 0.743042 -0.144642 6.65895 0.955339 -0.185968 8.64722 1.64513 -0.236222 10.5238 2.44275 -0.434904 12.3471 3.30696 -0.653332 14.1375 4.22703 -0.899992 15.8961 5.24663 -1.18067 17.5936 6.34443 -1.44147 19.2449 7.54474 -1.72148 20.82 8.79765 -2.01883 22.3503 9.83795 -2.25721 23.4287 0.0991945 -0.00967509 0.695021 0.208022 -0.0156187 1.68906 0.22112 -0.0160567 1.80952 0.232934 -0.0166363 1.91761 0.245035 -0.016931 2.02963 0.257984 -0.017336 2.147 0.36728 -0.0215333 3.141 0.378523 -0.0218052 3.24037 0.390366 -0.0233537 3.33965 0.297583 -0.0290253 2.68506 0.495972 -0.0483754 4.67511 0.694361 -0.0677256 6.66515 0.89275 -0.0870758 8.65519 0.709314 0.116041 10.6364 0.519079 0.449004 12.5993 
</DataArray>
</Points>
<Lines>
<DataArray type="Int32" Name="connectivity" NumberOfComponents="1" format="ascii" >
0 1 1 2 2 3 3 4 4 5 5 6 6 7 7 8 8 9 9 10 10 11 11 12 12 13 13 14 14 15 15 16 16 17 17 18 18 19 19 20 1 21 21 22 22 23 23 24 1 25 25 26 26 27 27 28 2 29 29 30 30 31 31 32 2 33 33 34 34 35 35 36 3 37 37 38 38 39 39 40 3 41 41 42 42 43 43 44 4 45 45 46 46 47 47 48 4 49 49 50 50 51 51 52 5 53 53 54 54 55 5 56 56 57 57 58 6 59 59 60 60 61 6 62 62 63 63 64 7 65 65 66 66 67 7 68 68 69 69 70 8 71 71 72 72 73 8 74 74 75 75 76 9 77 77 78 9 79 79 80 10 81 81 82 10 83 83 84 11 85 85 86 11 87 12 88 13 89 0 90 90 91 91 92 92 93 93 94 94 95 95 96 96 97 97 98 98 99 99 100 100 101 101 102 102 103 103 104 104 105 105 106 106 107 107 108 90 109 109 110 110 111 111 112 90 113 113 114 114 115 115 116 91 117 117 118 118 119 119 120 91 121 121 122 122 123 123 124 92 125 125 126 126 127 92 128 128 129 129 130 93 131 131 132 132 133 93 134 134 135 135 136 94 137 137 138 138 139 94 140 140 141 141 142 95 143 143 144 95 145 145 146 96 147 147 148 96 149 149 150 97 151 151 152 97 153 153 154 98 155 155 156 98 157 99 158 100 159 0 160 160 161 161 162 162 163 163 164 164 165 165 166 166 167 167 168 168 169 169 170 170 171 171 172 172 173 160 174 174 175 160 176 176 177 161 178 178 179 161 180 162 181 181 182 162 183 163 184 0 185 185 186 186 187 187 188 188 189 189 190 190 191 191 192 0 193 0 194 194 195 195 196 196 197 197 198 198 199 194 200 200 201 201 202 202 203 203 204 204 205 205 206 206 207 207 208 208 209 209 210 210 211 211 212 0 213 213 214 214 215 215 216 216 217 217 218 218 219 219 220 220 221 213 222 222 223 223 224 224 225 225 226 226 227 
</DataArray>
<DataArray type="Int32" Name="offsets" NumberOfComponents="1" format="ascii" >
2 4 6 8 10 12 14 16 18 20 22 24 26 28 30 32 34 36 38 40 42 44 46 48 50 52 54 56 58 60 62 64 66 68 70 72 74 76 78 80 82 84 86 88 90 92 94 96 98 100 102 104 106 108 110 112 114 116 118 120 122 124 126 128 130 132 134 136 138 140 142 144 146 148 150 152 154 156 158 160 162 164 166 168 170 172 174 176 178 180 182 184 186 188 190 192 194 196 198 200 202 204 206 208 210 212 214 216 218 220 222 224 226 228 230 232 234 236 238 240 242 244 246 248 250 252 254 256 258 260 262 264 266 268 270 272 274 276 278 280 282 284 286 288 290 292 294 296 298 300 302 304 306 308 310 312 314 316 318 320 322 324 326 328 330 332 334 336 338 340 342 344 346 348 350 352 354 356 358 360 362 364 366 368 370 372 374 376 378 380 382 384 386 388 390 392 394 396 398 400 402 404 406 408 410 412 414 416 418 420 422 424 426 428 430 432 434 436 438 440 442 444 446 448 450 452 454 
</DataArray>

</Lines>
</Piece>
</PolyData>
</VTKFile>
