<?xml version="1.0"?><VTKFile type="PolyData" version="0.1" byte_order="LittleEndian">
<PolyData>
<Piece NumberOfLines="271" NumberOfPoints="272">
<CellData Scalars=" CellData">
<DataArray type="Float32" Name="radius" NumberOfComponents="1" format="ascii" >
0.0436 0.0436 0.0436 0.0436 0.0436 0.0436 0.0436 0.0436 0.0436 0.0436 0.0436 0.0436 0.0436 0.0436 0.0436 0.0436 0.0436 0.0436 0.0436 0.0436 0.0436 0.0436 0.0436 0.0436 0.0436 0.0436 0.0436 0.0436 0.0436 0.0436 0.0436 0.0436 0.0436 0.0436 0.0436 0.0436 0.0436 0.0436 0.0436 0.0436 0.0436 0.0436 0.0436 0.0436 0.0436 0.0436 0.0436 0.0436 0.0436 0.0436 0.0436 0.0436 0.0436 0.0436 0.0436 0.0436 0.0436 0.0436 0.0436 0.0436 0.0436 0.0436 0.0436 0.0436 0.0436 0.0436 0.02 0.02 0.02 0.02 0.02 0.01 0.01 0.02 0.02 0.02 0.02 0.02 0.01 0.01 0.02 0.02 0.02 0.02 0.02 0.01 0.01 0.02 0.02 0.02 0.02 0.02 0.01 0.01 0.02 0.02 0.02 0.02 0.02 0.01 0.01 0.02 0.02 0.02 0.02 0.02 0.01 0.01 0.02 0.02 0.02 0.02 0.02 0.01 0.01 0.02 0.02 0.02 0.02 0.02 0.01 0.01 0.02 0.02 0.02 0.02 0.02 0.01 0.01 0.02 0.02 0.02 0.02 0.02 0.01 0.01 0.02 0.02 0.02 0.02 0.02 0.01 0.01 0.02 0.02 0.02 0.02 0.02 0.01 0.01 0.02 0.02 0.02 0.02 0.02 0.01 0.01 0.02 0.02 0.02 0.02 0.02 0.01 0.01 0.02 0.02 0.02 0.02 0.02 0.01 0.01 0.02 0.02 0.02 0.02 0.02 0.01 0.01 0.02 0.02 0.02 0.02 0.02 0.01 0.01 0.02 0.02 0.02 0.02 0.02 0.01 0.01 0.02 0.02 0.02 0.02 0.02 0.01 0.01 0.02 0.02 0.02 0.02 0.02 0.01 0.01 0.02 0.02 0.02 0.02 0.02 0.01 0.01 0.02 0.02 0.02 0.02 0.02 0.01 0.01 0.02 0.02 0.02 0.02 0.02 0.01 0.01 0.02 0.02 0.02 0.02 0.02 0.01 0.01 0.02 0.02 0.02 0.02 0.02 0.01 0.01 0.02 0.02 0.02 0.02 0.02 0.01 0.01 0.02 0.02 0.02 0.02 0.02 0.01 0.01 0.02 0.02 0.02 0.02 0.02 0.01 0.01 0.02 0.02 0.02 0.02 0.02 0.02 0.02 0.02 0.02 
</DataArray>
<DataArray type="Float32" Name="subType" NumberOfComponents="1" format="ascii" >
1 1 1 1 1 1 1 1 1 1 1 1 1 1 1 1 1 1 1 1 1 1 1 1 1 1 1 1 1 1 1 1 1 1 1 1 1 1 1 1 1 1 1 1 1 1 1 1 1 1 1 1 1 1 1 1 1 1 1 1 1 1 1 1 1 1 2 2 2 2 2 3 3 2 2 2 2 2 3 3 2 2 2 2 2 3 3 2 2 2 2 2 3 3 2 2 2 2 2 3 3 2 2 2 2 2 3 3 2 2 2 2 2 3 3 2 2 2 2 2 3 3 2 2 2 2 2 3 3 2 2 2 2 2 3 3 2 2 2 2 2 3 3 2 2 2 2 2 3 3 2 2 2 2 2 3 3 2 2 2 2 2 3 3 2 2 2 2 2 3 3 2 2 2 2 2 3 3 2 2 2 2 2 3 3 2 2 2 2 2 3 3 2 2 2 2 2 3 3 2 2 2 2 2 3 3 2 2 2 2 2 3 3 2 2 2 2 2 3 3 2 2 2 2 2 3 3 2 2 2 2 2 3 3 2 2 2 2 2 3 3 2 2 2 2 2 3 3 2 2 2 2 2 3 3 2 2 2 2 2 3 3 2 2 2 2 2 2 2 2 2 
</DataArray>
<DataArray type="Float32" Name="creationTime" NumberOfComponents="1" format="ascii" >
0.3125 0.625 0.8604 1.1729 1.21615 1.52865 1.57191 1.88441 1.92766 2.24016 2.28341 2.59591 2.63917 2.95167 2.99492 3.30742 3.35067 3.66317 3.70642 4.01892 4.06218 4.37468 4.41793 4.73043 4.77368 5.08618 5.12944 5.44194 5.48519 5.79769 5.84094 6.15344 6.1967 6.5092 6.55245 6.86495 6.9082 7.2207 7.26396 7.57646 7.61971 7.93221 7.97546 8.28796 8.33122 8.64372 8.68697 8.99947 9.04272 9.35522 9.39847 9.71097 9.75423 10.0667 10.11 10.4225 10.4657 10.7782 10.8215 11.134 11.1772 11.4897 11.533 11.8455 11.8887 12 1.30435 1.57043 1.78329 2.04936 2.13051 2.34328 2.53051 1.6601 1.92618 2.13904 2.40511 2.48626 2.69903 2.88626 2.01586 2.28193 2.49479 2.76087 2.84202 3.05478 3.24202 2.37161 2.63769 2.85055 3.11662 3.19777 3.41054 3.59777 2.72736 2.99344 3.2063 3.47237 3.55352 3.76629 3.95352 3.08312 3.34919 3.56205 3.82813 3.90928 4.12204 4.30928 3.43887 3.70495 3.91781 4.18388 4.26503 4.47779 4.66503 3.79462 4.0607 4.27356 4.53963 4.62078 4.83355 5.02078 4.15038 4.41645 4.62931 4.89539 4.97654 5.1893 5.37654 4.50613 4.7722 4.98506 5.25114 5.33229 5.54505 5.73229 4.86188 5.12796 5.34082 5.60689 5.68804 5.90081 6.08804 5.21764 5.48371 5.69657 5.96265 6.04379 6.25656 6.44379 5.57339 5.83946 6.05232 6.3184 6.39955 6.61231 6.79955 5.92914 6.19522 6.40808 6.67415 6.7553 6.96807 7.1553 6.2849 6.55097 6.76383 7.02991 7.11105 7.32382 7.51105 6.64065 6.90672 7.11958 7.38566 7.46681 7.67957 7.86681 6.9964 7.26248 7.47534 7.74141 7.82256 8.03533 8.22256 7.35215 7.61823 7.83109 8.09716 8.17831 8.39108 8.57831 7.70791 7.97398 8.18684 8.45292 8.53407 8.74683 8.93407 8.06366 8.32974 8.5426 8.80867 8.88982 9.10259 9.28982 8.41941 8.68549 8.89835 9.16442 9.24557 9.45834 9.64557 8.77517 9.04124 9.2541 9.52018 9.60133 9.81409 10.0013 9.13092 9.397 9.60986 9.87593 9.95708 10.1698 10.3571 9.48667 9.75275 9.96561 10.2317 10.3128 10.5256 10.7128 9.84243 10.1085 10.3214 10.5874 10.6686 10.8814 11.0686 10.1982 10.4643 10.6771 10.9432 11.0243 11.2371 11.4243 10.5539 10.82 11.0329 11.2989 11.3801 11.5929 11.7801 10.9097 11.1758 11.3886 11.6547 11.7358 11.9486 12 11.2654 11.5315 11.7444 12 11.6212 11.8873 12 11.9769 12 
</DataArray>
<DataArray type="Float32" Name="organType" NumberOfComponents="1" format="ascii" >
2 2 2 2 2 2 2 2 2 2 2 2 2 2 2 2 2 2 2 2 2 2 2 2 2 2 2 2 2 2 2 2 2 2 2 2 2 2 2 2 2 2 2 2 2 2 2 2 2 2 2 2 2 2 2 2 2 2 2 2 2 2 2 2 2 2 2 2 2 2 2 2 2 2 2 2 2 2 2 2 2 2 2 2 2 2 2 2 2 2 2 2 2 2 2 2 2 2 2 2 2 2 2 2 2 2 2 2 2 2 2 2 2 2 2 2 2 2 2 2 2 2 2 2 2 2 2 2 2 2 2 2 2 2 2 2 2 2 2 2 2 2 2 2 2 2 2 2 2 2 2 2 2 2 2 2 2 2 2 2 2 2 2 2 2 2 2 2 2 2 2 2 2 2 2 2 2 2 2 2 2 2 2 2 2 2 2 2 2 2 2 2 2 2 2 2 2 2 2 2 2 2 2 2 2 2 2 2 2 2 2 2 2 2 2 2 2 2 2 2 2 2 2 2 2 2 2 2 2 2 2 2 2 2 2 2 2 2 2 2 2 2 2 2 2 2 2 2 2 2 2 2 2 2 2 2 2 2 2 2 2 2 2 2 2 2 2 2 2 2 2 
</DataArray>

</CellData>
<Points>
<DataArray type="Float32" Name="Coordinates" NumberOfComponents="3" format="ascii" >
0 0 -3 -0.007583 -0.00031533 -3.49994 -0.0144497 -0.000996155 -3.99989 -0.0138442 -0.0162584 -4.37622 -0.0182242 -0.0301436 -4.87601 -0.0202703 -0.0325247 -4.94515 -0.0117914 -0.0424905 -5.44498 -0.010905 -0.0438933 -5.51416 -0.00491713 -0.0537661 -6.01403 -0.0062572 -0.0539626 -6.08322 -0.00965864 -0.0687709 -6.58299 -0.00556561 -0.0702238 -6.65206 0.019203 -0.0788715 -7.15137 0.0223274 -0.0779762 -7.2205 0.0128413 -0.076149 -7.7204 0.0114332 -0.0760633 -7.78959 0.00539603 -0.0797928 -8.28954 0.00467446 -0.0804226 -8.35874 -0.0115676 -0.0606431 -8.85809 -0.00971491 -0.0601362 -8.92726 -0.00995534 -0.0531784 -9.42722 -0.00970412 -0.0525881 -9.49642 -0.0118986 -0.0466884 -9.99638 -0.0123344 -0.0457449 -10.0656 -0.0112466 -0.0316943 -10.5654 -0.0102814 -0.0312289 -10.6346 -0.00143647 -0.0285273 -11.1345 0.000121026 -0.0306102 -11.2036 0.0121786 -0.0281911 -11.7035 0.0131949 -0.0281424 -11.7727 0.0343194 -0.0399857 -12.2721 0.0380343 -0.041029 -12.3412 0.0487349 -0.0465693 -12.8411 0.0495735 -0.047919 -12.9102 0.0651689 -0.0437781 -13.41 0.0639473 -0.0434059 -13.4792 0.0536492 -0.0418349 -13.9791 0.0544244 -0.041515 -14.0483 0.0588094 -0.037093 -14.5482 0.0594448 -0.0360361 -14.6174 0.0638071 -0.0243083 -15.1173 0.0628941 -0.024306 -15.1865 0.0557791 -0.028115 -15.6864 0.0590003 -0.025442 -15.7555 0.0729244 -0.0329332 -16.2552 0.0747888 -0.0338161 -16.3244 0.109523 -0.0480525 -16.823 0.111166 -0.0484174 -16.8922 0.110709 -0.0490518 -17.3922 0.11249 -0.049237 -17.4614 0.125343 -0.0551569 -17.9612 0.126647 -0.0559689 -18.0303 0.143869 -0.0522787 -18.53 0.143761 -0.052987 -18.5992 0.140464 -0.0555468 -19.0992 0.140567 -0.0565772 -19.1684 0.141264 -0.0638215 -19.6684 0.181396 -0.0300377 -19.7135 0.516287 0.226406 -19.982 0.580346 0.251674 -19.9751 1.03749 0.454203 -19.9736 1.09835 0.487115 -19.9749 1.58278 0.610014 -19.9898 1.65057 0.607718 -19.9761 2.14442 0.538721 -19.9393 2.21348 0.535053 -19.9369 2.37853 0.470289 -19.9528 0.485624 -0.0348916 -4.38981 0.972429 -0.0562885 -4.50189 1.33951 -0.0673656 -4.66041 1.81128 -0.103665 -4.82202 1.95176 -0.12965 -4.87535 1.56988 -0.0423136 -4.21735 1.77319 -0.0207181 -3.82774 -0.49797 0.020524 -5.08295 -0.946838 0.238332 -5.11577 -1.30293 0.419194 -5.13788 -1.7018 0.696178 -5.01879 -1.82152 0.784454 -4.98521 -1.33953 0.485948 -4.64371 -1.37393 0.545114 -4.20907 0.369603 -0.367722 -5.53283 0.737847 -0.701963 -5.58459 1.11432 -0.837133 -5.58458 1.59461 -0.973993 -5.56033 1.73679 -1.02814 -5.55002 1.30136 -0.41377 -5.39543 1.46516 -0.0326149 -5.24883 0.215109 -0.50119 -6.1146 0.501602 -0.910459 -6.13511 0.705007 -1.24831 -6.20205 0.997972 -1.65069 -6.24967 1.0874 -1.77344 -6.26337 0.752051 -1.16586 -6.69295 0.788298 -1.09876 -7.12629 -0.454461 -0.261961 -6.76036 -0.927191 -0.36839 -6.88365 -1.31471 -0.430657 -6.96077 -1.76072 -0.594022 -7.11695 -1.88964 -0.63274 -7.1886 -1.40051 -0.671094 -6.53085 -1.4697 -0.86872 -6.14387 -0.430095 -0.256161 -7.33696 -0.884943 -0.438508 -7.43627 -1.26591 -0.544281 -7.4969 -1.71136 -0.770715 -7.51428 -1.85803 -0.773254 -7.4726 -1.35002 -0.173382 -7.82149 -1.4211 0.149185 -8.11218 -0.396975 -0.361785 -7.82917 -0.688548 -0.758672 -7.91557 -0.892541 -1.09822 -7.85996 -1.30184 -1.26601 -8.09302 -1.44102 -1.28266 -8.15307 -0.483169 -1.34197 -7.70829 -0.123644 -1.55421 -7.56939 0.0773335 0.412495 -8.40061 0.285176 0.855824 -8.50191 0.423193 1.22486 -8.57094 0.568217 1.69432 -8.66351 0.581146 1.84627 -8.66409 0.034001 1.44731 -8.34948 -0.303108 1.65147 -8.15384 -0.133161 -0.541572 -8.87267 -0.256084 -1.02319 -8.81852 -0.333568 -1.41348 -8.77764 -0.379409 -1.91001 -8.74081 -0.341688 -2.05435 -8.77237 0.0554219 -1.48499 -8.47174 0.397722 -1.54169 -8.20116 -0.227769 -0.315552 -9.86152 -0.424049 -0.752527 -10.0048 -0.674603 -1.05961 -10.0589 -1.02786 -1.39065 -10.1838 -1.11393 -1.51344 -10.2115 -0.702283 -0.996009 -10.554 -0.726765 -0.940039 -10.9898 0.179863 0.340316 -10.3186 0.474954 0.742007 -10.3582 0.711148 1.06241 -10.3976 0.978203 1.48462 -10.4181 1.0643 1.60614 -10.3854 1.11343 0.832359 -10.2098 1.4668 0.631667 -10.0411 -0.36022 -0.388127 -10.6475 -0.673941 -0.76584 -10.7419 -0.879718 -1.09926 -10.8225 -1.29842 -1.35858 -10.7362 -1.41163 -1.45586 -10.705 -1.21611 -1.02671 -10.4597 -1.51081 -0.963078 -10.1392 0.0865895 -0.516399 -11.2845 0.153951 -0.994286 -11.4152 0.125876 -1.38648 -11.3417 0.0932753 -1.87003 -11.2188 0.117842 -2.01577 -11.1812 0.620514 -1.45674 -11.3617 1.05553 -1.52053 -11.3788 -0.45223 0.151156 -11.8078 -0.919536 0.255441 -11.9518 -1.25804 0.457061 -12.0208 -1.63799 0.748812 -12.1641 -1.76241 0.828468 -12.2019 -1.0442 0.825295 -12.2829 -0.855156 1.15013 -12.5117 -0.404699 0.0786424 -12.5404 -0.815441 0.220681 -12.7876 -1.19514 0.31427 -12.8717 -1.67224 0.425277 -12.9719 -1.8035 0.476034 -13.0307 -1.10776 0.801839 -12.9398 -1.025 1.23017 -12.9971 0.479316 0.202944 -12.8614 0.904576 0.446904 -12.9595 1.24563 0.619733 -13.077 1.71591 0.716362 -13.2167 1.82807 0.801737 -13.2749 1.24297 0.398378 -13.5254 1.24428 0.203602 -13.9199 0.469231 0.243926 -13.5356 0.908487 0.474904 -13.4748 1.29202 0.579061 -13.52 1.6927 0.861614 -13.6182 1.8153 0.947752 -13.6465 1.34309 0.335546 -13.9537 1.38488 0.123539 -14.337 0.183257 -0.522325 -14.0954 0.203722 -1.01144 -14.1972 0.31443 -1.39518 -14.2193 0.433834 -1.87662 -14.1564 0.444707 -2.02721 -14.1778 -0.12733 -1.58096 -14.0767 -0.517233 -1.74542 -13.9561 -0.394883 0.108101 -14.7685 -0.86325 0.207627 -14.9124 -1.23789 0.289592 -15.0261 -1.72923 0.381487 -15.0146 -1.88003 0.404098 -15.0126 -1.09384 0.519246 -15.4463 -0.974271 0.721762 -15.8181 0.560844 -0.0516807 -15.2225 1.00411 0.0199137 -15.4424 1.37441 0.137199 -15.5379 1.84851 0.258603 -15.6404 1.99245 0.302653 -15.6647 1.50619 -0.304104 -15.7326 1.62302 -0.689482 -15.9099 -0.428715 0.0843162 -15.7648 -0.84847 0.268471 -15.9645 -1.19887 0.194826 -16.1429 -1.68725 0.163804 -16.2454 -1.834 0.150944 -16.2849 -1.32661 -0.159673 -15.8142 -1.44046 -0.469903 -15.5237 0.387085 -0.408429 -16.2142 0.723655 -0.766657 -16.3059 0.947582 -1.08514 -16.3976 1.24233 -1.46948 -16.5218 1.3285 -1.59108 -16.554 0.689502 -1.18998 -16.8129 0.461411 -1.27972 -17.1783 -0.362017 -0.194086 -16.962 -0.839675 -0.323304 -16.8903 -1.19504 -0.504729 -16.9185 -1.59958 -0.798568 -16.9215 -1.7295 -0.878105 -16.9146 -1.45242 -0.0996838 -16.7782 -1.67156 0.252817 -16.6322 0.0773113 -0.54606 -17.5053 -0.0904584 -1.01185 -17.5753 -0.25988 -1.35508 -17.6914 -0.372631 -1.83269 -17.7872 -0.298523 -1.96581 -17.7807 0.182111 -1.58804 -17.7106 0.561628 -1.8094 -17.7345 0.544044 0.217578 -18.0612 0.95799 0.497155 -18.0832 1.29676 0.707177 -18.1168 1.72781 0.957452 -18.1563 1.87434 0.922183 -18.1331 1.5737 0.344091 -17.9132 1.83458 0.0282119 -17.7527 0.303279 0.409611 -18.4965 0.596714 0.813696 -18.5212 0.81343 1.1497 -18.533 0.869326 1.64624 -18.5151 0.787805 1.77122 -18.5466 1.02196 1.07369 -18.0849 1.1971 1.00624 -17.6869 0.580948 -0.288309 -19.217 1.065 -0.388803 -19.2918 1.40997 -0.577221 -19.366 1.87363 -0.73098 -19.4726 2.00577 -0.778936 -19.5317 1.59748 -0.219051 -19.6602 1.76231 0.0961088 -19.9192 -0.24014 0.112162 -19.9417 -0.692574 0.320155 -19.9869 -1.03313 0.45931 -19.8299 -1.45118 0.6382 -19.622 -1.56699 0.713187 -19.557 -1.43077 0.738369 -19.9483 -1.54066 0.787702 -19.9569 0.792161 0.704466 -19.9858 1.13264 1.07062 -19.9887 1.34552 1.38977 -19.8755 1.53697 1.81372 -19.7556 1.28997 0.0450376 -19.8413 1.56971 -0.348883 -19.7126 1.70661 -0.493982 -19.6413 1.93834 1.01599 -19.9984 1.96892 1.04644 -19.9945 
</DataArray>
</Points>
<Lines>
<DataArray type="Int32" Name="connectivity" NumberOfComponents="1" format="ascii" >
0 1 1 2 2 3 3 4 4 5 5 6 6 7 7 8 8 9 9 10 10 11 11 12 12 13 13 14 14 15 15 16 16 17 17 18 18 19 19 20 20 21 21 22 22 23 23 24 24 25 25 26 26 27 27 28 28 29 29 30 30 31 31 32 32 33 33 34 34 35 35 36 36 37 37 38 38 39 39 40 40 41 41 42 42 43 43 44 44 45 45 46 46 47 47 48 48 49 49 50 50 51 51 52 52 53 53 54 54 55 55 56 56 57 57 58 58 59 59 60 60 61 61 62 62 63 63 64 64 65 65 66 3 67 67 68 68 69 69 70 70 71 69 72 72 73 5 74 74 75 75 76 76 77 77 78 76 79 79 80 7 81 81 82 82 83 83 84 84 85 83 86 86 87 9 88 88 89 89 90 90 91 91 92 90 93 93 94 11 95 95 96 96 97 97 98 98 99 97 100 100 101 13 102 102 103 103 104 104 105 105 106 104 107 107 108 15 109 109 110 110 111 111 112 112 113 111 114 114 115 17 116 116 117 117 118 118 119 119 120 118 121 121 122 19 123 123 124 124 125 125 126 126 127 125 128 128 129 21 130 130 131 131 132 132 133 133 134 132 135 135 136 23 137 137 138 138 139 139 140 140 141 139 142 142 143 25 144 144 145 145 146 146 147 147 148 146 149 149 150 27 151 151 152 152 153 153 154 154 155 153 156 156 157 29 158 158 159 159 160 160 161 161 162 160 163 163 164 31 165 165 166 166 167 167 168 168 169 167 170 170 171 33 172 172 173 173 174 174 175 175 176 174 177 177 178 35 179 179 180 180 181 181 182 182 183 181 184 184 185 37 186 186 187 187 188 188 189 189 190 188 191 191 192 39 193 193 194 194 195 195 196 196 197 195 198 198 199 41 200 200 201 201 202 202 203 203 204 202 205 205 206 43 207 207 208 208 209 209 210 210 211 209 212 212 213 45 214 214 215 215 216 216 217 217 218 216 219 219 220 47 221 221 222 222 223 223 224 224 225 223 226 226 227 49 228 228 229 229 230 230 231 231 232 230 233 233 234 51 235 235 236 236 237 237 238 238 239 237 240 240 241 53 242 242 243 243 244 244 245 245 246 244 247 247 248 55 249 249 250 250 251 251 252 252 253 251 254 254 255 57 256 256 257 257 258 258 259 259 260 258 261 261 262 59 263 263 264 264 265 265 266 61 267 267 268 268 269 63 270 270 271 
</DataArray>
<DataArray type="Int32" Name="offsets" NumberOfComponents="1" format="ascii" >
2 4 6 8 10 12 14 16 18 20 22 24 26 28 30 32 34 36 38 40 42 44 46 48 50 52 54 56 58 60 62 64 66 68 70 72 74 76 78 80 82 84 86 88 90 92 94 96 98 100 102 104 106 108 110 112 114 116 118 120 122 124 126 128 130 132 134 136 138 140 142 144 146 148 150 152 154 156 158 160 162 164 166 168 170 172 174 176 178 180 182 184 186 188 190 192 194 196 198 200 202 204 206 208 210 212 214 216 218 220 222 224 226 228 230 232 234 236 238 240 242 244 246 248 250 252 254 256 258 260 262 264 266 268 270 272 274 276 278 280 282 284 286 288 290 292 294 296 298 300 302 304 306 308 310 312 314 316 318 320 322 324 326 328 330 332 334 336 338 340 342 344 346 348 350 352 354 356 358 360 362 364 366 368 370 372 374 376 378 380 382 384 386 388 390 392 394 396 398 400 402 404 406 408 410 412 414 416 418 420 422 424 426 428 430 432 434 436 438 440 442 444 446 448 450 452 454 456 458 460 462 464 466 468 470 472 474 476 478 480 482 484 486 488 490 492 494 496 498 500 502 504 506 508 510 512 514 516 518 520 522 524 526 528 530 532 534 536 538 540 542 
</DataArray>

</Lines>
</Piece>
</PolyData>
</VTKFile>
