<?xml version="1.0"?><VTKFile type="PolyData" version="0.1" byte_order="LittleEndian">
<PolyData>
<Piece NumberOfLines="219" NumberOfPoints="220">
<CellData Scalars=" CellData">
<DataArray type="Float32" Name="radius" NumberOfComponents="1" format="ascii" >
0.05 0.05 0.05 0.05 0.05 0.05 0.05 0.05 0.05 0.05 0.05 0.05 0.05 0.05 0.05 0.05 0.05 0.05 0.05 0.05 0.02 0.02 0.02 0.02 0.02 0.02 0.02 0.02 0.02 0.02 0.02 0.02 0.02 0.02 0.02 0.02 0.02 0.02 0.02 0.02 0.02 0.02 0.02 0.02 0.02 0.02 0.02 0.02 0.02 0.02 0.02 0.02 0.02 0.02 0.02 0.02 0.02 0.02 0.02 0.02 0.02 0.02 0.02 0.02 0.02 0.02 0.02 0.02 0.02 0.02 0.02 0.02 0.02 0.02 0.02 0.02 0.02 0.02 0.02 0.02 0.02 0.02 0.02 0.02 0.02 0.05 0.05 0.05 0.05 0.05 0.05 0.05 0.05 0.05 0.05 0.05 0.05 0.05 0.05 0.05 0.05 0.05 0.05 0.05 0.02 0.02 0.02 0.02 0.02 0.02 0.02 0.02 0.02 0.02 0.02 0.02 0.02 0.02 0.02 0.02 0.02 0.02 0.02 0.02 0.02 0.02 0.02 0.02 0.02 0.02 0.02 0.02 0.02 0.02 0.02 0.02 0.02 0.02 0.02 0.02 0.02 0.02 0.02 0.02 0.02 0.02 0.02 0.02 0.02 0.02 0.02 0.02 0.02 0.05 0.05 0.05 0.05 0.05 0.05 0.05 0.05 0.05 0.05 0.05 0.05 0.05 0.02 0.02 0.02 0.02 0.02 0.02 0.02 0.02 0.02 0.02 0.05 0.05 0.05 0.05 0.05 0.05 0.05 0.05 0.15 0.15 0.15 0.15 0.15 0.15 0.03 0.03 0.03 0.03 0.03 0.03 0.03 0.03 0.03 0.03 0.03 0.03 0.03 0.15 0.15 0.15 0.15 0.15 0.15 0.15 0.15 0.15 0.15 0.03 0.03 0.03 0.03 0.03 0.03 
</DataArray>
<DataArray type="Float32" Name="subType" NumberOfComponents="1" format="ascii" >
1 1 1 1 1 1 1 1 1 1 1 1 1 1 1 1 1 1 1 1 2 2 2 2 2 2 2 2 2 2 2 2 2 2 2 2 2 2 2 2 2 2 2 2 2 2 2 2 2 2 2 2 2 2 2 2 2 2 2 2 2 2 2 2 2 2 2 2 2 2 2 2 2 2 2 2 2 2 2 2 2 2 2 2 2 4 4 4 4 4 4 4 4 4 4 4 4 4 4 4 4 4 4 4 2 2 2 2 2 2 2 2 2 2 2 2 2 2 2 2 2 2 2 2 2 2 2 2 2 2 2 2 2 2 2 2 2 2 2 2 2 2 2 2 2 2 2 2 2 2 2 2 2 4 4 4 4 4 4 4 4 4 4 4 4 4 2 2 2 2 2 2 2 2 2 2 4 4 4 4 4 4 4 4 1 1 1 1 1 1 1 1 1 1 1 1 1 1 1 1 1 1 1 4 4 4 4 4 4 4 4 4 4 1 1 1 1 1 1 
</DataArray>
<DataArray type="Float32" Name="creationTime" NumberOfComponents="1" format="ascii" >
0.420178 0.847539 1.28233 1.72482 2.17528 2.63401 3.10132 3.57752 4.06297 4.55804 5.06311 5.57859 6.10492 6.64258 7.19205 7.75387 8.32861 8.91687 9.51931 10.0417 5.47378 6.65161 7.98693 9.52843 5.47378 6.65161 7.98693 9.52843 5.90114 7.07897 8.41429 9.79167 5.90114 7.07897 8.41429 9.79167 6.33594 7.51377 8.84908 10.0208 6.33594 7.51377 8.84908 10.0208 6.77843 7.95626 9.29157 10.25 6.77843 7.95626 9.29157 10.25 7.22889 8.40672 9.66667 7.22889 8.40672 9.66667 7.68762 8.86545 9.91667 7.68762 8.86545 9.91667 8.15492 9.33275 10.1667 8.15492 9.33275 10.1667 8.63113 9.70833 8.63113 9.70833 9.11658 9.97917 9.11658 9.97917 9.5625 10.2083 9.61164 10.25 9.77083 10.0417 9.97917 1.42018 1.84754 2.28233 2.72482 3.17528 3.63401 4.10132 4.57752 5.06297 5.55804 6.06311 6.57859 7.10492 7.64258 8.19205 8.75387 9.32861 9.875 10.3542 6.47378 7.65161 8.98693 10.0833 6.47378 7.65161 8.98693 10.0833 6.90114 8.07897 9.41429 10.3125 6.90114 8.07897 9.41429 10.3125 7.33594 8.51377 9.72917 7.33594 8.51377 9.72917 7.77843 8.95626 9.97917 7.77843 8.95626 9.97917 8.22889 9.40672 10.2083 8.22889 9.40672 10.2083 8.68762 9.75 8.68762 9.75 9.15492 10 9.15492 10 9.58333 10.2083 9.63113 10.2708 9.77083 10.0208 9.95833 4.42018 4.84754 5.28233 5.72482 6.17528 6.63401 7.10132 7.57752 8.06297 8.55804 9.06311 9.57859 10.0208 9.47378 10.1458 9.47378 10.1458 9.6875 10.2917 9.875 9.83333 10.1667 10.1042 7.42018 7.84754 8.28233 8.72482 9.17528 9.63401 10.0208 10.3542 1.01881 3.40403 4 2.2939 1.22722 1.33203 1.53081 2.06842 2.63434 3.23172 3.86426 4.53635 5.25328 6.02147 6.8488 7.74515 8.7231 9.77083 10.3542 1.01881 3.40403 3.52083 3.64583 3.75 3.85417 3.95833 2.2939 1.22722 1.33203 1.53081 2.06842 2.63434 3.23172 3.83333 4.35417 
</DataArray>
<DataArray type="Float32" Name="organType" NumberOfComponents="1" format="ascii" >
2 2 2 2 2 2 2 2 2 2 2 2 2 2 2 2 2 2 2 2 2 2 2 2 2 2 2 2 2 2 2 2 2 2 2 2 2 2 2 2 2 2 2 2 2 2 2 2 2 2 2 2 2 2 2 2 2 2 2 2 2 2 2 2 2 2 2 2 2 2 2 2 2 2 2 2 2 2 2 2 2 2 2 2 2 2 2 2 2 2 2 2 2 2 2 2 2 2 2 2 2 2 2 2 2 2 2 2 2 2 2 2 2 2 2 2 2 2 2 2 2 2 2 2 2 2 2 2 2 2 2 2 2 2 2 2 2 2 2 2 2 2 2 2 2 2 2 2 2 2 2 2 2 2 2 2 2 2 2 2 2 2 2 2 2 2 2 2 2 2 2 2 2 2 2 2 2 2 2 2 2 2 2 2 3 3 3 3 3 3 4 4 4 4 4 4 4 4 4 4 4 4 4 3 3 3 3 3 3 3 3 3 3 4 4 4 4 4 4 
</DataArray>

</CellData>
<Points>
<DataArray type="Float32" Name="Coordinates" NumberOfComponents="3" format="ascii" >
0 0 -0.3 -0.298434 -0.304855 -1.20443 -0.15398 -0.686486 -2.11739 0.25803 -1.05323 -2.95151 0.650748 -1.41329 -3.79775 0.940822 -1.69206 -4.71325 0.962068 -1.61986 -5.71042 1.09866 -1.4331 -6.68328 1.30377 -1.24679 -7.64412 1.24548 -1.06699 -8.6261 1.08407 -0.888164 -9.59665 1.09423 -0.42633 -10.4836 1.04017 -0.0780614 -11.4194 1.04372 0.269629 -12.357 1.0798 0.599437 -13.3004 1.10645 0.979985 -14.2247 1.04715 1.29865 -15.1707 1.15254 1.43179 -16.1562 1.52429 1.55991 -17.0757 1.79087 1.72571 -18.0251 2.55323 1.86274 -18.6576 0.0439223 -0.540903 -2.11387 -0.447197 -0.693829 -2.97143 -0.10434 -0.792904 -3.90558 -0.597332 -0.85709 -4.77324 -0.927752 -0.975474 -1.59715 -1.50882 -1.40061 -2.29115 -1.6206 -1.18735 -3.26172 -2.14043 -0.993926 -4.09381 -0.294543 -1.27324 -2.91487 -0.318963 -1.53622 -3.87936 -0.404216 -1.80357 -4.83918 -0.153457 -1.39116 -5.71498 -0.180823 -0.389115 -3.07178 -0.077805 -0.0942563 -4.02175 0.0805064 0.222522 -4.95694 0.258649 0.610222 -5.86135 0.327213 -0.670595 -3.87281 0.40488 -0.312299 -4.80318 0.78616 -0.729255 -5.62827 1.00464 -0.668673 -6.60223 0.79638 -1.49323 -3.67024 0.535461 -1.77828 -4.59256 0.550176 -2.05227 -5.55418 0.68299 -2.23433 -6.52845 0.824602 -1.74599 -4.72462 0.981861 -1.8311 -5.7085 0.985219 -1.68196 -6.69731 1.3856 -1.70569 -7.61335 1.18814 -1.70809 -4.58788 0.906415 -1.89908 -5.52817 0.742552 -2.21467 -6.46281 1.33829 -2.41697 -7.24009 1.52527 -1.06342 -5.22631 1.86422 -0.193331 -5.58417 2.71199 0.1961 -5.94421 1.21986 -2.63449 -4.52897 1.82489 -3.24315 -5.04225 2.44002 -3.79364 -5.60669 1.32127 -1.45799 -6.62953 1.82436 -1.29819 -7.47886 1.82795 -1.57562 -8.4396 1.03856 -1.7087 -6.70352 1.10872 -1.79754 -7.69709 1.27281 -1.77947 -8.68337 1.95056 -1.52177 -7.19942 2.91204 -1.60704 -7.46074 3.34037 -2.14102 -8.18971 0.980369 -1.7733 -7.61616 0.899204 -2.0561 -8.5719 1.19225 -2.31886 -9.49119 0.896942 -1.23699 -8.55757 0.77557 -1.22761 -9.55014 1.31959 -0.690145 -8.47472 1.23806 -0.19666 -9.34065 0.442688 -0.660897 -9.06268 -0.198065 -0.875474 -9.79983 1.44985 -1.07372 -9.60497 1.3426 -1.08012 -10.5992 1.45355 -1.36602 -10.3936 1.26137 -1.73622 -11.3025 1.36392 -1.21895 -10.4979 1.33822 -1.35273 -11.4886 1.57706 -0.455154 -11.3588 1.54728 -0.0773053 -11.3039 1.53352 -0.28333 -12.2647 0.376805 -0.169024 -1.21074 0.730797 -0.337997 -2.1306 1.16682 -0.538908 -3.00782 1.83721 -0.731701 -3.72434 2.11997 -0.90501 -4.66775 2.34043 -1.25736 -5.57728 2.3593 -1.6024 -6.51568 1.93829 -1.91256 -7.36805 1.8237 -2.50107 -8.16838 1.71207 -3.10023 -8.96119 1.68059 -3.501 -9.87683 1.98168 -3.93297 -10.727 1.85622 -4.25395 -11.6657 1.65767 -4.50034 -12.6143 1.6396 -4.33671 -13.6007 1.41295 -4.17669 -14.5614 1.00409 -4.40969 -15.4438 0.637918 -4.50432 -16.3695 0.28665 -4.32969 -17.2893 0.46164 -1.09732 -1.57279 0.546184 -1.41979 -2.51558 0.295117 -1.62306 -3.46197 0.0431365 -1.83407 -4.40642 0.192016 -0.755788 -1.99913 0.270034 -0.568739 -2.97838 0.360142 -0.487693 -3.97101 0.489936 -0.572738 -4.9589 1.16193 -0.591387 -2.99658 1.30223 -0.387821 -3.96553 1.33647 -0.18541 -4.94423 1.25587 0.096408 -5.90031 1.54079 -0.869894 -2.37758 2.15513 -1.35325 -3.00123 2.20174 -1.34553 -4.00012 2.51652 -1.57267 -4.92171 1.2453 -0.648083 -3.99874 1.30502 -0.757239 -4.99097 0.635626 -0.556595 -5.70626 0.586241 -0.711368 -3.80355 0.792298 -0.654334 -4.78042 1.22625 -0.598953 -5.67965 1.98397 -0.519253 -4.69043 1.62845 -0.333947 -5.60655 1.58443 -0.274922 -6.60383 1.68851 -1.10799 -4.63883 1.50439 -1.56388 -5.50962 2.0871 -1.8778 -6.25922 2.05082 -0.735503 -5.65085 2.19358 -0.569808 -6.62664 2.16592 -0.406528 -7.61283 2.17886 -1.34327 -5.56467 2.24487 -0.942508 -6.47847 2.36149 -1.34362 -7.38704 2.80767 -2.14106 -5.54968 2.55652 -3.01966 -5.95587 2.62139 -1.50331 -6.50495 2.76389 -1.79582 -7.45053 1.95163 -2.03841 -7.31798 1.81962 -2.45574 -8.2171 2.1894 -2.11783 -7.3556 2.62152 -2.53285 -8.15624 1.94062 -1.58403 -8.31254 1.83677 -1.58455 -9.30714 2.32577 -1.8856 -8.28954 2.10403 -1.86368 -9.2644 1.88266 -2.37535 -9.15869 1.52809 -2.49942 -9.12369 1.88141 -3.70121 -9.74231 0.287006 -0.376786 -1.18072 0.310436 -0.739965 -2.11214 -0.0706496 -0.908242 -3.02124 -0.0255409 -1.21325 -3.97252 0.251298 -1.50985 -4.88651 0.517275 -1.62136 -5.84402 0.334287 -1.72159 -6.82201 0.319726 -1.79252 -7.81939 0.298092 -1.84877 -8.81757 0.278965 -1.90101 -9.81602 0.69976 -1.94797 -10.722 0.680727 -1.99019 -11.7209 0.73124 -2.0323 -12.7187 0.600622 -0.778933 -2.0409 0.780923 -1.26301 -2.89715 -0.138755 -0.440508 -2.0833 0.191445 -0.863852 -2.92696 0.138868 -1.11387 -3.0236 -0.307858 -0.955382 -3.90412 0.150226 -1.0761 -3.04023 -0.265463 -0.976004 -3.99973 -0.82026 -1.42218 -3.43831 0.536206 -1.79856 -4.5572 0.0419346 -0.357934 -1.2328 -0.245501 -0.696143 -2.12891 -0.170874 -1.05694 -3.05856 -0.302269 -1.21226 -4.03765 0.0137908 -1.3519 -4.97605 0.299893 -1.04403 -5.88345 0.253563 -0.451596 -6.68773 0.327931 0.201041 -1.22306 0.0989111 -0.0186576 0.694921 0.207388 -0.0329776 1.68892 0.264383 -0.046065 2.20589 0.389299 -0.0795349 3.1975 0.402528 -0.0823032 3.29658 0.415763 -0.0850588 3.39566 0.296733 -0.0559729 2.68476 0.494556 -0.0932882 4.67461 0.692378 -0.130604 6.66445 0.8902 -0.167919 8.65429 1.52463 -0.249584 10.5492 2.24461 -0.409278 12.4083 3.04349 -0.593674 14.2325 3.93953 -0.772541 16.0116 4.90499 -1.00374 17.7478 5.93034 -1.29906 19.4394 7.00288 -1.6281 21.0951 8.15246 -1.91208 22.7069 8.97312 -2.12288 23.7181 0.105217 -0.0242768 0.694153 0.211496 -0.0593858 1.68787 0.224009 -0.0638522 1.78987 0.23828 -0.0680146 1.89947 0.251227 -0.0717764 1.99885 0.266288 -0.076298 2.10436 0.28382 -0.0795813 2.214 0.448659 -0.111762 3.1998 0.467204 -0.114227 3.29803 0.48575 -0.116878 3.39626 0.315652 -0.0728304 2.68246 0.526087 -0.121384 4.67076 0.736521 -0.169938 6.65907 0.946956 -0.218491 8.64738 0.733352 -0.0599935 10.6296 0.481203 0.153008 12.6022 
</DataArray>
</Points>
<Lines>
<DataArray type="Int32" Name="connectivity" NumberOfComponents="1" format="ascii" >
0 1 1 2 2 3 3 4 4 5 5 6 6 7 7 8 8 9 9 10 10 11 11 12 12 13 13 14 14 15 15 16 16 17 17 18 18 19 19 20 1 21 21 22 22 23 23 24 1 25 25 26 26 27 27 28 2 29 29 30 30 31 31 32 2 33 33 34 34 35 35 36 3 37 37 38 38 39 39 40 3 41 41 42 42 43 43 44 4 45 45 46 46 47 47 48 4 49 49 50 50 51 51 52 5 53 53 54 54 55 5 56 56 57 57 58 6 59 59 60 60 61 6 62 62 63 63 64 7 65 65 66 66 67 7 68 68 69 69 70 8 71 71 72 8 73 73 74 9 75 75 76 9 77 77 78 10 79 79 80 10 81 81 82 11 83 11 84 12 85 0 86 86 87 87 88 88 89 89 90 90 91 91 92 92 93 93 94 94 95 95 96 96 97 97 98 98 99 99 100 100 101 101 102 102 103 103 104 86 105 105 106 106 107 107 108 86 109 109 110 110 111 111 112 87 113 113 114 114 115 115 116 87 117 117 118 118 119 119 120 88 121 121 122 122 123 88 124 124 125 125 126 89 127 127 128 128 129 89 130 130 131 131 132 90 133 133 134 134 135 90 136 136 137 137 138 91 139 139 140 91 141 141 142 92 143 143 144 92 145 145 146 93 147 147 148 93 149 149 150 94 151 94 152 95 153 0 154 154 155 155 156 156 157 157 158 158 159 159 160 160 161 161 162 162 163 163 164 164 165 165 166 154 167 167 168 154 169 169 170 155 171 171 172 155 173 156 174 156 175 157 176 0 177 177 178 178 179 179 180 180 181 181 182 182 183 0 184 0 185 185 186 186 187 187 188 188 189 189 190 185 191 191 192 192 193 193 194 194 195 195 196 196 197 197 198 198 199 199 200 200 201 201 202 202 203 0 204 204 205 205 206 206 207 207 208 208 209 209 210 210 211 211 212 212 213 204 214 214 215 215 216 216 217 217 218 218 219 
</DataArray>
<DataArray type="Int32" Name="offsets" NumberOfComponents="1" format="ascii" >
2 4 6 8 10 12 14 16 18 20 22 24 26 28 30 32 34 36 38 40 42 44 46 48 50 52 54 56 58 60 62 64 66 68 70 72 74 76 78 80 82 84 86 88 90 92 94 96 98 100 102 104 106 108 110 112 114 116 118 120 122 124 126 128 130 132 134 136 138 140 142 144 146 148 150 152 154 156 158 160 162 164 166 168 170 172 174 176 178 180 182 184 186 188 190 192 194 196 198 200 202 204 206 208 210 212 214 216 218 220 222 224 226 228 230 232 234 236 238 240 242 244 246 248 250 252 254 256 258 260 262 264 266 268 270 272 274 276 278 280 282 284 286 288 290 292 294 296 298 300 302 304 306 308 310 312 314 316 318 320 322 324 326 328 330 332 334 336 338 340 342 344 346 348 350 352 354 356 358 360 362 364 366 368 370 372 374 376 378 380 382 384 386 388 390 392 394 396 398 400 402 404 406 408 410 412 414 416 418 420 422 424 426 428 430 432 434 436 438 
</DataArray>

</Lines>
</Piece>
</PolyData>
</VTKFile>
