<?xml version="1.0"?><VTKFile type="PolyData" version="0.1" byte_order="LittleEndian">
<PolyData>
<Piece NumberOfLines="12" NumberOfPoints="13">
<CellData Scalars=" CellData">
<DataArray type="Float32" Name="radius" NumberOfComponents="1" format="ascii" >
0.05 0.05 0.05 0.05 0.05 0.05 0.15 0.15 0.15 0.15 0.03 0.03 
</DataArray>
<DataArray type="Float32" Name="subType" NumberOfComponents="1" format="ascii" >
1 1 1 1 4 4 1 1 1 1 1 1 
</DataArray>
<DataArray type="Float32" Name="creationTime" NumberOfComponents="1" format="ascii" >
0.420178 0.847539 1.28233 1.72482 1.42018 1.84754 1.01881 2 1.22722 1.33203 1.53081 2 
</DataArray>
<DataArray type="Float32" Name="organType" NumberOfComponents="1" format="ascii" >
2 2 2 2 2 2 3 3 3 3 4 4 
</DataArray>

</CellData>
<Points>
<DataArray type="Float32" Name="Coordinates" NumberOfComponents="3" format="ascii" >
0 0 -0.3 -0.298434 -0.304855 -1.20443 -0.150702 -0.578901 -2.15474 -0.45077 -0.825253 -3.07629 -0.730143 -1.05785 -4.00788 0.352013 -0.22989 -1.20732 0.693576 -0.459767 -2.11864 0.0988354 -0.0220612 0.694859 0.177026 -0.0436089 1.4187 0.190089 -0.0466886 1.51779 0.204655 -0.0490294 1.6167 0.74651 -0.266317 2.57125 1.34949 -0.514021 4.19636 
</DataArray>
</Points>
<Lines>
<DataArray type="Int32" Name="connectivity" NumberOfComponents="1" format="ascii" >
0 1 1 2 2 3 3 4 0 5 5 6 0 7 7 8 8 9 9 10 7 11 11 12 
</DataArray>
<DataArray type="Int32" Name="offsets" NumberOfComponents="1" format="ascii" >
2 4 6 8 10 12 14 16 18 20 22 24 
</DataArray>

</Lines>
</Piece>
</PolyData>
</VTKFile>
