<?xml version="1.0"?><VTKFile type="PolyData" version="0.1" byte_order="LittleEndian">
<PolyData>
<Piece NumberOfLines="156" NumberOfPoints="157">
<CellData Scalars=" CellData">
<DataArray type="Float32" Name="radius" NumberOfComponents="1" format="ascii" >
0.05 0.05 0.05 0.05 0.05 0.05 0.05 0.05 0.05 0.05 0.05 0.05 0.05 0.05 0.05 0.05 0.05 0.05 0.05 0.02 0.02 0.02 0.02 0.02 0.02 0.02 0.02 0.02 0.02 0.02 0.02 0.02 0.02 0.02 0.02 0.02 0.02 0.02 0.02 0.02 0.02 0.02 0.02 0.02 0.02 0.02 0.02 0.02 0.02 0.02 0.02 0.02 0.02 0.02 0.02 0.02 0.02 0.02 0.02 0.02 0.02 0.02 0.05 0.05 0.05 0.05 0.05 0.05 0.05 0.05 0.05 0.05 0.05 0.05 0.05 0.05 0.05 0.05 0.05 0.02 0.02 0.02 0.02 0.02 0.02 0.02 0.02 0.02 0.02 0.02 0.02 0.02 0.02 0.02 0.02 0.02 0.02 0.02 0.02 0.02 0.02 0.02 0.02 0.02 0.02 0.02 0.02 0.02 0.05 0.05 0.05 0.05 0.05 0.05 0.05 0.05 0.05 0.05 0.05 0.05 0.02 0.02 0.05 0.05 0.05 0.05 0.05 0.15 0.15 0.15 0.15 0.15 0.15 0.03 0.03 0.03 0.03 0.03 0.03 0.03 0.03 0.03 0.03 0.03 0.03 0.15 0.15 0.15 0.15 0.15 0.15 0.03 0.03 0.03 0.03 0.03 
</DataArray>
<DataArray type="Float32" Name="subType" NumberOfComponents="1" format="ascii" >
1 1 1 1 1 1 1 1 1 1 1 1 1 1 1 1 1 1 1 2 2 2 2 2 2 2 2 2 2 2 2 2 2 2 2 2 2 2 2 2 2 2 2 2 2 2 2 2 2 2 2 2 2 2 2 2 2 2 2 2 2 2 4 4 4 4 4 4 4 4 4 4 4 4 4 4 4 4 4 2 2 2 2 2 2 2 2 2 2 2 2 2 2 2 2 2 2 2 2 2 2 2 2 2 2 2 2 2 4 4 4 4 4 4 4 4 4 4 4 4 2 2 4 4 4 4 4 1 1 1 1 1 1 1 1 1 1 1 1 1 1 1 1 1 1 4 4 4 4 4 4 1 1 1 1 1 
</DataArray>
<DataArray type="Float32" Name="creationTime" NumberOfComponents="1" format="ascii" >
0.420178 0.847539 1.28233 1.72482 2.17528 2.63401 3.10132 3.57752 4.06297 4.55804 5.06311 5.57859 6.10492 6.64258 7.19205 7.75387 8.32861 8.91687 9.51931 5.47378 6.65161 7.98693 9.52843 5.47378 6.65161 7.98693 9.52843 5.90114 7.07897 8.41429 5.90114 7.07897 8.41429 6.33594 7.51377 8.84908 6.33594 7.51377 8.84908 6.77843 7.95626 9.29157 6.77843 7.95626 9.29157 7.22889 8.40672 7.22889 8.40672 7.68762 8.86545 7.68762 8.86545 8.15492 9.33275 8.15492 9.33275 8.63113 8.63113 9.11658 9.11658 9.58333 1.42018 1.84754 2.28233 2.72482 3.17528 3.63401 4.10132 4.57752 5.06297 5.55804 6.06311 6.57859 7.10492 7.64258 8.19205 8.75387 9.32861 6.47378 7.65161 8.98693 6.47378 7.65161 8.98693 6.90114 8.07897 9.41429 6.90114 8.07897 9.41429 7.33594 8.51377 7.33594 8.51377 7.77843 8.95626 7.77843 8.95626 8.22889 9.40672 8.22889 9.40672 8.68762 8.68762 9.15492 9.15492 9.58333 4.42018 4.84754 5.28233 5.72482 6.17528 6.63401 7.10132 7.57752 8.06297 8.55804 9.06311 9.57859 9.47378 9.47378 7.42018 7.84754 8.28233 8.72482 9.17528 1.01881 3.40403 4 2.2939 1.22722 1.33203 1.53081 2.06842 2.63434 3.23172 3.86426 4.53635 5.25328 6.02147 6.8488 7.74515 8.7231 9.58333 1.01881 3.40403 3.54167 2.2939 1.22722 1.33203 1.53081 2.06842 2.63434 3.23172 3.58333 
</DataArray>
<DataArray type="Float32" Name="organType" NumberOfComponents="1" format="ascii" >
2 2 2 2 2 2 2 2 2 2 2 2 2 2 2 2 2 2 2 2 2 2 2 2 2 2 2 2 2 2 2 2 2 2 2 2 2 2 2 2 2 2 2 2 2 2 2 2 2 2 2 2 2 2 2 2 2 2 2 2 2 2 2 2 2 2 2 2 2 2 2 2 2 2 2 2 2 2 2 2 2 2 2 2 2 2 2 2 2 2 2 2 2 2 2 2 2 2 2 2 2 2 2 2 2 2 2 2 2 2 2 2 2 2 2 2 2 2 2 2 2 2 2 2 2 2 2 3 3 3 3 3 3 4 4 4 4 4 4 4 4 4 4 4 4 3 3 3 3 3 3 4 4 4 4 4 
</DataArray>

</CellData>
<Points>
<DataArray type="Float32" Name="Coordinates" NumberOfComponents="3" format="ascii" >
0 0 -0.3 -0.298434 -0.304855 -1.20443 -0.49827 -0.176214 -2.17578 -0.949725 -0.0801118 -3.06289 -1.59714 0.429327 -3.62974 -2.24358 1.05811 -4.06189 -3.1511 1.34208 -4.37134 -3.65908 2.17988 -4.57146 -3.99834 3.11486 -4.46794 -4.26356 3.73491 -3.72957 -4.16478 4.14993 -2.82514 -3.81526 4.19311 -1.8892 -3.07042 3.96919 -1.26065 -2.10869 3.86483 -1.00731 -1.13256 3.77101 -1.20319 -0.272768 3.31485 -1.43268 0.297575 2.68363 -1.9583 0.81028 2.39653 -2.76744 1.31859 1.95778 -3.50847 2.11584 1.50302 -3.90544 0.0439223 -0.540903 -2.11387 -0.447197 -0.693829 -2.97143 -1.15994 -1.3568 -3.20049 -1.43495 -2.19874 -2.73626 -0.641767 -0.17978 -2.13528 -0.984828 -0.0547054 -3.06623 -1.30692 0.662878 -3.68375 -1.33551 1.62513 -3.95442 -1.00997 0.246335 -2.92385 -1.10921 1.00451 -3.56831 -1.1735 1.98906 -3.40542 -1.04084 0.467038 -2.716 -1.57356 1.1063 -3.27059 -2.10394 1.74872 -3.82375 -1.59437 0.545796 -3.50184 -2.34998 1.15535 -3.7416 -2.34055 2.08594 -4.10754 -0.559386 0.60595 -3.67685 0.390743 0.880965 -3.82389 1.2172 1.36798 -4.10637 -1.31548 1.29097 -4.05193 -0.542398 1.89097 -3.84616 0.19175 2.56896 -3.8092 -2.2268 0.690912 -2.89824 -2.91066 1.41962 -2.86182 -3.59153 2.15007 -2.80834 -3.08131 1.60281 -4.10069 -3.65929 1.9557 -3.36488 -2.97098 1.36325 -3.44725 -3.48848 2.21876 -3.43036 -3.20135 2.32535 -4.54639 -2.72256 3.12997 -4.19519 -3.66591 0.493224 -4.25123 -4.03803 -0.430583 -4.16119 -3.47558 3.11481 -4.26776 -3.00599 3.45032 -3.45111 -3.98299 3.11966 -4.46236 -4.22437 3.74307 -3.71866 -3.0332 3.37126 -4.41536 -4.49322 3.89384 -4.85302 -4.44033 4.13872 -2.83197 -3.3861 3.79962 -3.25431 -3.79382 4.3821 -1.92598 0.414655 -0.0732649 -1.20702 0.475402 -0.2888 -2.18163 0.0927905 -0.482553 -3.08499 -0.610378 -0.796591 -3.72291 -1.23411 -1.45245 -4.14811 -2.05974 -2.01563 -4.18246 -2.67135 -2.79646 -4.05503 -3.34947 -3.52137 -3.93396 -3.68445 -3.99589 -3.11994 -4.01539 -4.03964 -2.17731 -3.99118 -3.34137 -1.46188 -3.78777 -2.43148 -1.10033 -3.17657 -1.68799 -0.828925 -2.88303 -0.741587 -0.694194 -2.75583 0.239302 -0.841423 -2.63126 1.22996 -0.785894 -2.29589 2.17143 -0.819923 0.731884 -0.166107 -2.15082 1.34685 -0.206528 -2.93833 2.11419 -0.407431 -3.5473 1.11702 -0.585136 -1.70167 1.48015 -1.04086 -2.51435 2.22021 -0.772818 -3.13117 0.522717 0.101769 -3.10099 0.0318064 0.714072 -3.72074 -0.651813 1.39781 -3.97602 0.60462 -0.663839 -3.09959 0.848684 -1.44866 -3.66923 1.54614 -2.08838 -3.99221 -0.323153 0.216205 -3.667 -0.753536 1.05286 -4.00578 0.946094 -0.809019 -3.49156 1.9004 -0.954837 -3.2307 -0.750846 0.141443 -4.0397 -0.885415 1.13184 -4.07151 -0.465326 -1.78028 -3.82933 -0.384744 -2.77689 -3.81313 -1.16186 -2.37616 -3.77188 -0.718101 -3.19484 -3.40741 -1.39271 -2.40049 -4.42392 -1.97827 -3.18872 -4.61316 -2.11399 -2.70453 -3.45964 -3.03178 -1.8259 -4.32076 -2.67652 -3.30399 -3.19341 -2.61928 -3.35305 -3.22588 -2.79942 -3.76826 -3.13615 -0.0608676 0.0070807 -1.29812 0.304372 -0.108375 -2.22185 0.682562 -0.241092 -3.13801 1.46238 -0.526613 -3.69511 2.37403 -0.913228 -3.83447 3.2152 -1.44927 -3.90588 3.64633 -2.32089 -4.13911 4.06386 -3.19274 -4.39515 3.83348 -3.70094 -3.5653 3.90197 -3.90684 -2.58913 3.39667 -3.91019 -1.72619 2.55737 -3.91318 -1.18252 0.0705877 -0.0668559 -2.28668 0.0803414 -0.295674 -2.24067 -0.390927 -0.477429 -1.08692 -0.765475 -0.900672 -1.91189 -0.703288 -1.28114 -2.83459 -0.305315 -1.86727 -3.54033 0.416961 -2.40104 -3.98011 0.099186 -0.0290352 0.694645 0.201333 -0.0599922 1.68893 0.255111 -0.0802855 2.20602 0.358243 -0.119 3.19994 0.370627 -0.122875 3.29909 0.383755 -0.126088 3.39817 0.297558 -0.0871056 2.68394 0.49593 -0.145176 4.67323 0.694302 -0.203246 6.66252 0.892674 -0.261317 8.65181 1.52942 -0.454007 10.5379 2.32002 -0.696482 12.359 3.20145 -0.959367 14.1349 4.14204 -1.30726 15.8653 5.15021 -1.60566 17.5666 6.21163 -2.00682 19.2136 7.42123 -2.38374 20.7611 8.47533 -2.65347 21.9583 0.0986076 -0.0305358 0.694658 0.198434 -0.0691197 1.68891 0.210502 -0.0737597 1.80939 0.330808 -0.112085 2.80139 0.343583 -0.115256 2.90052 0.357348 -0.118737 2.9995 0.295823 -0.0916075 2.68397 0.493038 -0.152679 4.67329 0.690253 -0.213751 6.6626 0.887469 -0.274823 8.65192 0.740982 -0.21668 9.76916 
</DataArray>
</Points>
<Lines>
<DataArray type="Int32" Name="connectivity" NumberOfComponents="1" format="ascii" >
0 1 1 2 2 3 3 4 4 5 5 6 6 7 7 8 8 9 9 10 10 11 11 12 12 13 13 14 14 15 15 16 16 17 17 18 18 19 1 20 20 21 21 22 22 23 1 24 24 25 25 26 26 27 2 28 28 29 29 30 2 31 31 32 32 33 3 34 34 35 35 36 3 37 37 38 38 39 4 40 40 41 41 42 4 43 43 44 44 45 5 46 46 47 5 48 48 49 6 50 50 51 6 52 52 53 7 54 54 55 7 56 56 57 8 58 8 59 9 60 9 61 10 62 0 63 63 64 64 65 65 66 66 67 67 68 68 69 69 70 70 71 71 72 72 73 73 74 74 75 75 76 76 77 77 78 78 79 63 80 80 81 81 82 63 83 83 84 84 85 64 86 86 87 87 88 64 89 89 90 90 91 65 92 92 93 65 94 94 95 66 96 96 97 66 98 98 99 67 100 100 101 67 102 102 103 68 104 68 105 69 106 69 107 70 108 0 109 109 110 110 111 111 112 112 113 113 114 114 115 115 116 116 117 117 118 118 119 119 120 109 121 109 122 0 123 123 124 124 125 125 126 126 127 0 128 128 129 129 130 130 131 131 132 132 133 128 134 134 135 135 136 136 137 137 138 138 139 139 140 140 141 141 142 142 143 143 144 144 145 0 146 146 147 147 148 148 149 149 150 150 151 146 152 152 153 153 154 154 155 155 156 
</DataArray>
<DataArray type="Int32" Name="offsets" NumberOfComponents="1" format="ascii" >
2 4 6 8 10 12 14 16 18 20 22 24 26 28 30 32 34 36 38 40 42 44 46 48 50 52 54 56 58 60 62 64 66 68 70 72 74 76 78 80 82 84 86 88 90 92 94 96 98 100 102 104 106 108 110 112 114 116 118 120 122 124 126 128 130 132 134 136 138 140 142 144 146 148 150 152 154 156 158 160 162 164 166 168 170 172 174 176 178 180 182 184 186 188 190 192 194 196 198 200 202 204 206 208 210 212 214 216 218 220 222 224 226 228 230 232 234 236 238 240 242 244 246 248 250 252 254 256 258 260 262 264 266 268 270 272 274 276 278 280 282 284 286 288 290 292 294 296 298 300 302 304 306 308 310 312 
</DataArray>

</Lines>
</Piece>
</PolyData>
</VTKFile>
