<?xml version="1.0"?><VTKFile type="PolyData" version="0.1" byte_order="LittleEndian">
<PolyData>
<Piece NumberOfLines="276" NumberOfPoints="277">
<CellData Scalars=" CellData">
<DataArray type="Float32" Name="radius" NumberOfComponents="1" format="ascii" >
0.05 0.05 0.05 0.05 0.05 0.05 0.05 0.05 0.05 0.05 0.05 0.05 0.05 0.05 0.05 0.05 0.05 0.05 0.05 0.05 0.05 0.05 0.02 0.02 0.02 0.02 0.02 0.02 0.02 0.02 0.02 0.02 0.02 0.02 0.02 0.02 0.02 0.02 0.02 0.02 0.02 0.02 0.02 0.02 0.02 0.02 0.02 0.02 0.02 0.02 0.02 0.02 0.02 0.02 0.02 0.02 0.02 0.02 0.02 0.02 0.02 0.02 0.02 0.02 0.02 0.02 0.02 0.02 0.02 0.02 0.02 0.02 0.02 0.02 0.02 0.02 0.02 0.02 0.02 0.02 0.02 0.02 0.02 0.02 0.02 0.02 0.02 0.02 0.02 0.02 0.02 0.02 0.02 0.02 0.02 0.02 0.02 0.02 0.02 0.02 0.02 0.02 0.02 0.02 0.02 0.02 0.02 0.02 0.05 0.05 0.05 0.05 0.05 0.05 0.05 0.05 0.05 0.05 0.05 0.05 0.05 0.05 0.05 0.05 0.05 0.05 0.05 0.05 0.02 0.02 0.02 0.02 0.02 0.02 0.02 0.02 0.02 0.02 0.02 0.02 0.02 0.02 0.02 0.02 0.02 0.02 0.02 0.02 0.02 0.02 0.02 0.02 0.02 0.02 0.02 0.02 0.02 0.02 0.02 0.02 0.02 0.02 0.02 0.02 0.02 0.02 0.02 0.02 0.02 0.02 0.02 0.02 0.02 0.02 0.02 0.02 0.02 0.02 0.02 0.02 0.02 0.02 0.02 0.02 0.02 0.02 0.02 0.02 0.02 0.02 0.02 0.02 0.02 0.02 0.05 0.05 0.05 0.05 0.05 0.05 0.05 0.05 0.05 0.05 0.05 0.05 0.05 0.05 0.05 0.02 0.02 0.02 0.02 0.02 0.02 0.02 0.02 0.02 0.02 0.02 0.02 0.02 0.02 0.02 0.02 0.02 0.02 0.02 0.02 0.05 0.05 0.05 0.05 0.05 0.05 0.05 0.05 0.05 0.05 0.05 0.05 0.05 0.15 0.15 0.15 0.15 0.15 0.15 0.03 0.03 0.03 0.03 0.03 0.03 0.03 0.03 0.03 0.03 0.03 0.03 0.03 0.03 0.15 0.15 0.15 0.15 0.15 0.15 0.03 0.03 0.03 0.03 0.03 0.03 0.03 0.03 
</DataArray>
<DataArray type="Float32" Name="subType" NumberOfComponents="1" format="ascii" >
1 1 1 1 1 1 1 1 1 1 1 1 1 1 1 1 1 1 1 1 1 1 2 2 2 2 2 2 2 2 2 2 2 2 2 2 2 2 2 2 2 2 2 2 2 2 2 2 2 2 2 2 2 2 2 2 2 2 2 2 2 2 2 2 2 2 2 2 2 2 2 2 2 2 2 2 2 2 2 2 2 2 2 2 2 2 2 2 2 2 2 2 2 2 2 2 2 2 2 2 2 2 2 2 2 2 2 2 4 4 4 4 4 4 4 4 4 4 4 4 4 4 4 4 4 4 4 4 2 2 2 2 2 2 2 2 2 2 2 2 2 2 2 2 2 2 2 2 2 2 2 2 2 2 2 2 2 2 2 2 2 2 2 2 2 2 2 2 2 2 2 2 2 2 2 2 2 2 2 2 2 2 2 2 2 2 2 2 2 2 2 2 2 2 4 4 4 4 4 4 4 4 4 4 4 4 4 4 4 2 2 2 2 2 2 2 2 2 2 2 2 2 2 2 2 2 2 2 2 4 4 4 4 4 4 4 4 4 4 4 4 4 1 1 1 1 1 1 1 1 1 1 1 1 1 1 1 1 1 1 1 1 4 4 4 4 4 4 1 1 1 1 1 1 1 1 
</DataArray>
<DataArray type="Float32" Name="creationTime" NumberOfComponents="1" format="ascii" >
0.420178 0.847539 1.28233 1.72482 2.17528 2.63401 3.10132 3.57752 4.06297 4.55804 5.06311 5.57859 6.10492 6.64258 7.19205 7.75387 8.32861 8.91687 9.51931 10.1366 10.7696 11.419 5.47378 6.65161 7.98693 9.52843 11.3516 5.47378 6.65161 7.98693 9.52843 11.3516 5.90114 7.07897 8.41429 9.9558 11.5 5.90114 7.07897 8.41429 9.9558 11.5 6.33594 7.51377 8.84908 10.3906 6.33594 7.51377 8.84908 10.3906 6.77843 7.95626 9.29157 10.8331 6.77843 7.95626 9.29157 10.8331 7.22889 8.40672 9.74203 11.2835 7.22889 8.40672 9.74203 11.2835 7.68762 8.86545 10.2008 11.5 7.68762 8.86545 10.2008 11.5 8.15492 9.33275 10.6681 8.15492 9.33275 10.6681 8.63113 9.80896 11.1443 8.63113 9.80896 11.1443 9.11658 10.2944 11.5 9.11658 10.2944 11.5 9.61164 10.7895 11.5 9.61164 10.7895 11.5 10.1167 11.2945 10.1167 11.2945 10.6322 11.5 10.6322 11.1585 11.5 11.1585 1.42018 1.84754 2.28233 2.72482 3.17528 3.63401 4.10132 4.57752 5.06297 5.55804 6.06311 6.57859 7.10492 7.64258 8.19205 8.75387 9.32861 9.91687 10.5193 11.1366 6.47378 7.65161 8.98693 10.5284 6.47378 7.65161 8.98693 10.5284 6.90114 8.07897 9.41429 10.9558 6.90114 8.07897 9.41429 10.9558 7.33594 8.51377 9.84908 11.3906 7.33594 8.51377 9.84908 11.3906 7.77843 8.95626 10.2916 11.5 7.77843 8.95626 10.2916 11.5 8.22889 9.40672 10.742 8.22889 9.40672 10.742 8.68762 9.86545 11.2008 8.68762 9.86545 11.2008 9.15492 10.3328 11.5 9.15492 10.3328 11.5 9.63113 10.809 11.5 9.63113 10.809 11.5 10.1166 11.2944 10.1166 11.2944 10.6116 11.5 10.6116 11.1167 11.5 11.1167 4.42018 4.84754 5.28233 5.72482 6.17528 6.63401 7.10132 7.57752 8.06297 8.55804 9.06311 9.57859 10.1049 10.6426 11.1921 9.47378 10.6516 11.5 9.47378 10.6516 11.5 9.90114 11.079 9.90114 11.079 10.3359 11.5 10.3359 11.5 10.7784 11.5 10.7784 11.2289 11.5 11.2289 7.42018 7.84754 8.28233 8.72482 9.17528 9.63401 10.1013 10.5775 11.063 11.5 10.4202 10.8475 11.2823 1.01881 3.40403 4 2.2939 1.22722 1.33203 1.53081 2.06842 2.63434 3.23172 3.86426 4.53635 5.25328 6.02147 6.8488 7.74515 8.7231 9.79899 10.9947 11.5 1.01881 3.40403 4 2.2939 1.22722 1.33203 1.53081 2.06842 2.63434 3.23172 3.86426 4.53635 5.25328 5.5 
</DataArray>
<DataArray type="Float32" Name="organType" NumberOfComponents="1" format="ascii" >
2 2 2 2 2 2 2 2 2 2 2 2 2 2 2 2 2 2 2 2 2 2 2 2 2 2 2 2 2 2 2 2 2 2 2 2 2 2 2 2 2 2 2 2 2 2 2 2 2 2 2 2 2 2 2 2 2 2 2 2 2 2 2 2 2 2 2 2 2 2 2 2 2 2 2 2 2 2 2 2 2 2 2 2 2 2 2 2 2 2 2 2 2 2 2 2 2 2 2 2 2 2 2 2 2 2 2 2 2 2 2 2 2 2 2 2 2 2 2 2 2 2 2 2 2 2 2 2 2 2 2 2 2 2 2 2 2 2 2 2 2 2 2 2 2 2 2 2 2 2 2 2 2 2 2 2 2 2 2 2 2 2 2 2 2 2 2 2 2 2 2 2 2 2 2 2 2 2 2 2 2 2 2 2 2 2 2 2 2 2 2 2 2 2 2 2 2 2 2 2 2 2 2 2 2 2 2 2 2 2 2 2 2 2 2 2 2 2 2 2 2 2 2 2 2 2 2 2 2 2 2 2 2 2 2 2 2 2 2 2 2 2 3 3 3 3 3 3 4 4 4 4 4 4 4 4 4 4 4 4 4 4 3 3 3 3 3 3 4 4 4 4 4 4 4 4 
</DataArray>

</CellData>
<Points>
<DataArray type="Float32" Name="Coordinates" NumberOfComponents="3" format="ascii" >
0 0 -0.3 -0.298434 -0.304855 -1.20443 -0.15398 -0.686486 -2.11739 0.25803 -1.05323 -2.95151 0.650748 -1.41329 -3.79775 0.940822 -1.69206 -4.71325 0.962068 -1.61986 -5.71042 1.09866 -1.4331 -6.68328 1.30377 -1.24679 -7.64412 1.24548 -1.06699 -8.6261 1.08407 -0.888164 -9.59665 1.09423 -0.42633 -10.4836 1.04017 -0.0780614 -11.4194 1.04372 0.269629 -12.357 1.0798 0.599437 -13.3004 1.10645 0.979985 -14.2247 1.04715 1.29865 -15.1707 1.15254 1.43179 -16.1562 1.52429 1.55991 -17.0757 1.82918 1.6612 -18.0227 2.61303 1.74528 -18.6379 3.36082 2.29369 -19.0121 3.85238 3.15167 -19.1612 0.0439223 -0.540903 -2.11387 -0.447197 -0.693829 -2.97143 -0.10434 -0.792904 -3.90558 0.0389049 -0.816147 -4.895 0.633509 -0.836623 -5.69875 -0.927752 -0.975474 -1.59715 -1.50882 -1.40061 -2.29115 -1.6206 -1.18735 -3.26172 -2.40317 -1.22804 -3.88295 -3.06366 -1.67668 -4.48501 -0.294543 -1.27324 -2.91487 -0.318963 -1.53622 -3.87936 -0.404216 -1.80357 -4.83918 -0.384967 -1.2482 -5.67056 -1.04796 -1.17383 -6.41548 -0.180823 -0.389115 -3.07178 -0.077805 -0.0942563 -4.02175 0.0805064 0.222522 -4.95694 -0.426895 0.466393 -5.78342 -0.93915 0.795998 -6.57649 0.327213 -0.670595 -3.87281 0.40488 -0.312299 -4.80318 0.78616 -0.729255 -5.62827 0.341679 -0.999384 -6.48236 0.79638 -1.49323 -3.67024 0.535461 -1.77828 -4.59256 0.550176 -2.05227 -5.55418 0.701512 -2.32369 -6.50467 0.824602 -1.74599 -4.72462 0.981861 -1.8311 -5.7085 0.985219 -1.68196 -6.69731 0.734284 -2.29566 -7.44591 1.18814 -1.70809 -4.58788 0.906415 -1.89908 -5.52817 0.742552 -2.21467 -6.46281 1.07042 -2.49171 -7.366 1.52527 -1.06342 -5.22631 1.86422 -0.193331 -5.58417 1.60709 0.312851 -6.40737 1.41577 0.768747 -7.2766 1.21986 -2.63449 -4.52897 1.82489 -3.24315 -5.04225 2.48742 -3.77228 -5.57242 2.53741 -4.1559 -6.49456 1.32127 -1.45799 -6.62953 1.82436 -1.29819 -7.47886 1.95137 -1.38953 -8.46655 1.87951 -1.47906 -9.45994 1.03856 -1.7087 -6.70352 1.10872 -1.79754 -7.69709 0.677477 -1.87481 -8.59601 0.246417 -1.95201 -9.49503 1.95056 -1.52177 -7.19942 2.91204 -1.60704 -7.46074 3.32559 -1.87517 -8.33084 0.980369 -1.7733 -7.61616 0.899204 -2.0561 -8.5719 1.20659 -1.6045 -9.4095 0.896942 -1.23699 -8.55757 0.162451 -1.18735 -9.23438 0.2028 -1.15519 -10.233 1.31959 -0.690145 -8.47472 0.922393 -0.734504 -9.39138 0.665533 -0.778373 -10.3568 0.442688 -0.660897 -9.06268 0.221426 -0.376475 -9.9955 0.63355 -0.14994 -10.878 1.44985 -1.07372 -9.60497 1.93202 -1.08016 -10.481 2.08973 -1.08621 -11.4685 0.867966 -1.41355 -10.4196 1.26712 -1.83673 -11.233 1.20114 -1.91083 -12.2281 0.528111 -0.977731 -10.423 0.317743 -1.06097 -11.3971 0.426752 -1.13995 -12.388 1.67155 0.359767 -10.7043 1.7974 1.32355 -10.9395 2.01245 -0.159702 -10.7764 2.35773 0.0861578 -11.6822 1.59858 -0.322209 -12.2122 1.64986 -0.536801 -13.1876 0.261325 -0.266081 -12.0178 1.00065 0.560142 -13.3129 1.70185 0.75828 -13.9978 1.00873 1.26878 -12.3352 0.376805 -0.169024 -1.21074 0.730797 -0.337997 -2.1306 1.16682 -0.538908 -3.00782 1.83721 -0.731701 -3.72434 2.11997 -0.90501 -4.66775 2.34043 -1.25736 -5.57728 2.3593 -1.6024 -6.51568 1.93829 -1.91256 -7.36805 1.8237 -2.50107 -8.16838 1.71207 -3.10023 -8.96119 1.68059 -3.501 -9.87683 1.98168 -3.93297 -10.727 1.85622 -4.25395 -11.6657 1.65767 -4.50034 -12.6143 1.6396 -4.33671 -13.6007 1.41295 -4.17669 -14.5614 1.00409 -4.40969 -15.4438 0.651071 -4.58587 -16.3627 0.391496 -4.32241 -17.2917 0.169205 -3.66347 -18.0103 0.46164 -1.09732 -1.57279 0.546184 -1.41979 -2.51558 0.295117 -1.62306 -3.46197 0.149386 -1.74696 -4.4435 0.192016 -0.755788 -1.99913 0.270034 -0.568739 -2.97838 0.360142 -0.487693 -3.97101 0.386014 -0.210484 -4.93147 1.16193 -0.591387 -2.99658 1.30223 -0.387821 -3.96553 1.33647 -0.18541 -4.94423 1.42226 0.0836406 -5.90353 1.54079 -0.869894 -2.37758 2.15513 -1.35325 -3.00123 2.20174 -1.34553 -4.00012 2.22671 -1.50322 -4.98729 1.2453 -0.648083 -3.99874 1.30502 -0.757239 -4.99097 1.56959 -0.977959 -5.92974 1.86538 -0.959636 -6.88481 0.586241 -0.711368 -3.80355 0.792298 -0.654334 -4.78042 0.771545 -1.3595 -5.48917 1.17634 -1.99821 -6.14353 1.98397 -0.519253 -4.69043 1.62845 -0.333947 -5.60655 1.25916 -0.151553 -6.51779 1.07397 -0.375349 -7.47467 1.68851 -1.10799 -4.63883 1.50439 -1.56388 -5.50962 1.29737 -1.87136 -6.43838 1.38248 -2.16562 -7.39031 2.05082 -0.735503 -5.65085 2.19358 -0.569808 -6.62664 1.88753 -0.420929 -7.56694 2.17886 -1.34327 -5.56467 2.24487 -0.942508 -6.47847 2.33259 -0.567483 -7.40132 2.80767 -2.14106 -5.54968 3.43482 -2.89573 -5.74249 3.84112 -3.19608 -6.60545 2.62139 -1.50331 -6.50495 3.08483 -0.961948 -7.20649 2.74947 -0.611223 -8.08086 1.95163 -2.03841 -7.31798 1.78697 -2.45976 -8.20981 1.05335 -2.6881 -8.84987 2.1894 -2.11783 -7.3556 1.74529 -2.61157 -8.10325 1.64827 -3.07075 -8.98628 2.15898 -1.84963 -8.34136 2.46631 -1.78694 -9.2909 2.57014 -1.87699 -10.2814 2.2367 -2.53933 -8.08786 2.28188 -2.41336 -9.07886 2.04635 -2.42011 -10.0507 1.89174 -2.40028 -9.16096 1.67229 -2.47904 -10.1334 1.37502 -2.34853 -9.04896 1.64573 -2.23601 -10.005 1.88188 -3.70373 -9.74026 1.78309 -4.08509 -10.6594 1.96932 -3.7011 -9.71801 1.35631 -3.98725 -10.6883 1.3088 -4.28036 -11.6432 1.21582 -3.96599 -10.6303 0.287006 -0.376786 -1.18072 0.310436 -0.739965 -2.11214 -0.0706496 -0.908242 -3.02124 -0.0255409 -1.21325 -3.97252 0.251298 -1.50985 -4.88651 0.517275 -1.62136 -5.84402 0.334287 -1.72159 -6.82201 0.319726 -1.79252 -7.81939 0.298092 -1.84877 -8.81757 0.278965 -1.90101 -9.81602 0.69976 -1.94797 -10.722 0.772246 -1.99189 -11.7184 0.755718 -2.05167 -12.7164 0.50598 -2.1098 -13.683 0.697905 -2.25177 -14.6541 0.600622 -0.778933 -2.0409 1.20039 -1.15961 -2.74472 1.00074 -1.44034 -3.68351 -0.138755 -0.440508 -2.0833 0.274201 -0.532884 -2.98936 0.670932 -0.592912 -3.90533 0.444839 -1.24931 -2.96214 -0.0509843 -1.57019 -3.76911 0.200328 -1.53918 -2.70302 0.34382 -1.64185 -3.68733 -0.560612 -1.25732 -3.82004 -0.858418 -1.59843 -4.71164 -0.878669 -1.11676 -3.57226 -1.22249 -1.28822 -4.49551 -0.251029 -1.97215 -4.58344 -0.200274 -2.03872 -5.57993 -0.0258892 -2.10558 -4.42391 0.83012 -0.85105 -5.36708 0.992039 -0.723732 -6.34563 0.305075 -1.25632 -5.85234 0.0419346 -0.357934 -1.2328 -0.245501 -0.696143 -2.12891 -0.170874 -1.05694 -3.05856 -0.302269 -1.21226 -4.03765 0.0137908 -1.3519 -4.97605 0.685028 -1.30076 -5.71553 1.1222 -1.30551 -6.61489 1.25321 -1.31002 -7.60627 0.936688 -1.31407 -8.55484 0.830108 -1.31802 -9.54914 -0.0429855 0.238395 -1.27022 0.0806293 0.0592639 -2.24625 -0.00326299 -0.116007 -3.22718 0.0956754 -0.0223189 0.695162 0.194447 -0.0395968 1.69012 0.248441 -0.0514968 2.20745 0.352275 -0.0924394 3.2012 0.363377 -0.0976239 3.30045 0.374773 -0.102828 3.39966 0.287026 -0.0669568 2.68549 0.478377 -0.111595 4.67581 0.669728 -0.156232 6.66614 0.861079 -0.20087 8.65646 1.50966 -0.224537 10.5482 2.27355 -0.243885 12.3965 3.13476 -0.188415 14.2007 4.13114 -0.209098 15.9347 5.18825 -0.269537 17.6315 6.32742 -0.286603 19.2752 7.50632 -0.391436 20.8874 8.7597 -0.502123 22.442 10.0794 -0.552276 23.944 10.7954 -0.550873 24.693 0.0987442 -0.0235736 0.694834 0.202492 -0.0527411 1.68901 0.256492 -0.0773154 2.20589 0.367469 -0.135448 3.19801 0.37886 -0.14128 3.29719 0.390325 -0.147734 3.39632 0.296232 -0.0707209 2.6845 0.493721 -0.117868 4.67417 0.691209 -0.165015 6.66384 0.888697 -0.212163 8.6535 0.607099 -0.148915 10.6326 0.251425 -0.0760411 12.5993 -0.167584 0.171942 14.5392 -0.382731 0.384888 15.5916 
</DataArray>
</Points>
<Lines>
<DataArray type="Int32" Name="connectivity" NumberOfComponents="1" format="ascii" >
0 1 1 2 2 3 3 4 4 5 5 6 6 7 7 8 8 9 9 10 10 11 11 12 12 13 13 14 14 15 15 16 16 17 17 18 18 19 19 20 20 21 21 22 1 23 23 24 24 25 25 26 26 27 1 28 28 29 29 30 30 31 31 32 2 33 33 34 34 35 35 36 36 37 2 38 38 39 39 40 40 41 41 42 3 43 43 44 44 45 45 46 3 47 47 48 48 49 49 50 4 51 51 52 52 53 53 54 4 55 55 56 56 57 57 58 5 59 59 60 60 61 61 62 5 63 63 64 64 65 65 66 6 67 67 68 68 69 69 70 6 71 71 72 72 73 73 74 7 75 75 76 76 77 7 78 78 79 79 80 8 81 81 82 82 83 8 84 84 85 85 86 9 87 87 88 88 89 9 90 90 91 91 92 10 93 93 94 94 95 10 96 96 97 97 98 11 99 99 100 11 101 101 102 12 103 103 104 12 105 13 106 106 107 13 108 0 109 109 110 110 111 111 112 112 113 113 114 114 115 115 116 116 117 117 118 118 119 119 120 120 121 121 122 122 123 123 124 124 125 125 126 126 127 127 128 109 129 129 130 130 131 131 132 109 133 133 134 134 135 135 136 110 137 137 138 138 139 139 140 110 141 141 142 142 143 143 144 111 145 145 146 146 147 147 148 111 149 149 150 150 151 151 152 112 153 153 154 154 155 155 156 112 157 157 158 158 159 159 160 113 161 161 162 162 163 113 164 164 165 165 166 114 167 167 168 168 169 114 170 170 171 171 172 115 173 173 174 174 175 115 176 176 177 177 178 116 179 179 180 180 181 116 182 182 183 183 184 117 185 185 186 117 187 187 188 118 189 189 190 118 191 119 192 192 193 119 194 0 195 195 196 196 197 197 198 198 199 199 200 200 201 201 202 202 203 203 204 204 205 205 206 206 207 207 208 208 209 195 210 210 211 211 212 195 213 213 214 214 215 196 216 216 217 196 218 218 219 197 220 220 221 197 222 222 223 198 224 224 225 198 226 199 227 227 228 199 229 0 230 230 231 231 232 232 233 233 234 234 235 235 236 236 237 237 238 238 239 0 240 240 241 241 242 0 243 243 244 244 245 245 246 246 247 247 248 243 249 249 250 250 251 251 252 252 253 253 254 254 255 255 256 256 257 257 258 258 259 259 260 260 261 261 262 0 263 263 264 264 265 265 266 266 267 267 268 263 269 269 270 270 271 271 272 272 273 273 274 274 275 275 276 
</DataArray>
<DataArray type="Int32" Name="offsets" NumberOfComponents="1" format="ascii" >
2 4 6 8 10 12 14 16 18 20 22 24 26 28 30 32 34 36 38 40 42 44 46 48 50 52 54 56 58 60 62 64 66 68 70 72 74 76 78 80 82 84 86 88 90 92 94 96 98 100 102 104 106 108 110 112 114 116 118 120 122 124 126 128 130 132 134 136 138 140 142 144 146 148 150 152 154 156 158 160 162 164 166 168 170 172 174 176 178 180 182 184 186 188 190 192 194 196 198 200 202 204 206 208 210 212 214 216 218 220 222 224 226 228 230 232 234 236 238 240 242 244 246 248 250 252 254 256 258 260 262 264 266 268 270 272 274 276 278 280 282 284 286 288 290 292 294 296 298 300 302 304 306 308 310 312 314 316 318 320 322 324 326 328 330 332 334 336 338 340 342 344 346 348 350 352 354 356 358 360 362 364 366 368 370 372 374 376 378 380 382 384 386 388 390 392 394 396 398 400 402 404 406 408 410 412 414 416 418 420 422 424 426 428 430 432 434 436 438 440 442 444 446 448 450 452 454 456 458 460 462 464 466 468 470 472 474 476 478 480 482 484 486 488 490 492 494 496 498 500 502 504 506 508 510 512 514 516 518 520 522 524 526 528 530 532 534 536 538 540 542 544 546 548 550 552 
</DataArray>

</Lines>
</Piece>
</PolyData>
</VTKFile>
