<?xml version="1.0"?><VTKFile type="PolyData" version="0.1" byte_order="LittleEndian">
<PolyData>
<Piece NumberOfLines="9" NumberOfPoints="10">
<CellData Scalars=" CellData">
<DataArray type="Float32" Name="radius" NumberOfComponents="1" format="ascii" >
0.02 0.02 0.02 0.02 0.02 0.02 0.02 0.02 0.02 
</DataArray>
<DataArray type="Float32" Name="subType" NumberOfComponents="1" format="ascii" >
1 1 1 1 1 1 2 2 2 
</DataArray>
<DataArray type="Float32" Name="creationTime" NumberOfComponents="1" format="ascii" >
0.3125 0.625 0.8604 1.1729 1.21615 1.41667 1.30435 1.41667 1.41667 
</DataArray>
<DataArray type="Float32" Name="organType" NumberOfComponents="1" format="ascii" >
2 2 2 2 2 2 2 2 2 
</DataArray>

</CellData>
<Points>
<DataArray type="Float32" Name="Coordinates" NumberOfComponents="3" format="ascii" >
0 0 -3 -0.007583 -0.00031533 -3.49994 -0.0144497 -0.000996155 -3.99989 -0.0138442 -0.0162584 -4.37622 -0.0188853 -0.0195467 -4.87619 -0.0198338 -0.0199386 -4.94539 -0.00507361 -0.0252295 -5.26582 0.461719 0.0708086 -4.50374 0.668888 0.0709121 -4.54407 -0.00568019 -0.0588526 -4.95513 
</DataArray>
</Points>
<Lines>
<DataArray type="Int32" Name="connectivity" NumberOfComponents="1" format="ascii" >
0 1 1 2 2 3 3 4 4 5 5 6 3 7 7 8 5 9 
</DataArray>
<DataArray type="Int32" Name="offsets" NumberOfComponents="1" format="ascii" >
2 4 6 8 10 12 14 16 18 
</DataArray>

</Lines>
</Piece>
</PolyData>
</VTKFile>
