<?xml version="1.0"?><VTKFile type="PolyData" version="0.1" byte_order="LittleEndian">
<PolyData>
<Piece NumberOfLines="227" NumberOfPoints="228">
<CellData Scalars=" CellData">
<DataArray type="Float32" Name="radius" NumberOfComponents="1" format="ascii" >
0.05 0.05 0.05 0.05 0.05 0.05 0.05 0.05 0.05 0.05 0.05 0.05 0.05 0.05 0.05 0.05 0.05 0.05 0.05 0.05 0.02 0.02 0.02 0.02 0.02 0.02 0.02 0.02 0.02 0.02 0.02 0.02 0.02 0.02 0.02 0.02 0.02 0.02 0.02 0.02 0.02 0.02 0.02 0.02 0.02 0.02 0.02 0.02 0.02 0.02 0.02 0.02 0.02 0.02 0.02 0.02 0.02 0.02 0.02 0.02 0.02 0.02 0.02 0.02 0.02 0.02 0.02 0.02 0.02 0.02 0.02 0.02 0.02 0.02 0.02 0.02 0.02 0.02 0.02 0.02 0.02 0.02 0.02 0.02 0.02 0.02 0.02 0.02 0.05 0.05 0.05 0.05 0.05 0.05 0.05 0.05 0.05 0.05 0.05 0.05 0.05 0.05 0.05 0.05 0.05 0.05 0.05 0.02 0.02 0.02 0.02 0.02 0.02 0.02 0.02 0.02 0.02 0.02 0.02 0.02 0.02 0.02 0.02 0.02 0.02 0.02 0.02 0.02 0.02 0.02 0.02 0.02 0.02 0.02 0.02 0.02 0.02 0.02 0.02 0.02 0.02 0.02 0.02 0.02 0.02 0.02 0.02 0.02 0.02 0.02 0.02 0.02 0.02 0.02 0.02 0.02 0.02 0.02 0.02 0.05 0.05 0.05 0.05 0.05 0.05 0.05 0.05 0.05 0.05 0.05 0.05 0.05 0.05 0.02 0.02 0.02 0.02 0.02 0.02 0.02 0.02 0.02 0.02 0.05 0.05 0.05 0.05 0.05 0.05 0.05 0.05 0.05 0.15 0.15 0.15 0.15 0.15 0.15 0.03 0.03 0.03 0.03 0.03 0.03 0.03 0.03 0.03 0.03 0.03 0.03 0.03 0.15 0.15 0.15 0.15 0.15 0.15 0.15 0.15 0.15 0.15 0.03 0.03 0.03 0.03 0.03 0.03 
</DataArray>
<DataArray type="Float32" Name="subType" NumberOfComponents="1" format="ascii" >
1 1 1 1 1 1 1 1 1 1 1 1 1 1 1 1 1 1 1 1 2 2 2 2 2 2 2 2 2 2 2 2 2 2 2 2 2 2 2 2 2 2 2 2 2 2 2 2 2 2 2 2 2 2 2 2 2 2 2 2 2 2 2 2 2 2 2 2 2 2 2 2 2 2 2 2 2 2 2 2 2 2 2 2 2 2 2 2 4 4 4 4 4 4 4 4 4 4 4 4 4 4 4 4 4 4 4 2 2 2 2 2 2 2 2 2 2 2 2 2 2 2 2 2 2 2 2 2 2 2 2 2 2 2 2 2 2 2 2 2 2 2 2 2 2 2 2 2 2 2 2 2 2 2 2 2 2 2 2 4 4 4 4 4 4 4 4 4 4 4 4 4 4 2 2 2 2 2 2 2 2 2 2 4 4 4 4 4 4 4 4 4 1 1 1 1 1 1 1 1 1 1 1 1 1 1 1 1 1 1 1 4 4 4 4 4 4 4 4 4 4 1 1 1 1 1 1 
</DataArray>
<DataArray type="Float32" Name="creationTime" NumberOfComponents="1" format="ascii" >
0.420178 0.847539 1.28233 1.72482 2.17528 2.63401 3.10132 3.57752 4.06297 4.55804 5.06311 5.57859 6.10492 6.64258 7.19205 7.75387 8.32861 8.91687 9.51931 10.0625 5.47378 6.65161 7.98693 9.52843 5.47378 6.65161 7.98693 9.52843 5.90114 7.07897 8.41429 9.79167 5.90114 7.07897 8.41429 9.79167 6.33594 7.51377 8.84908 10.0417 6.33594 7.51377 8.84908 10.0417 6.77843 7.95626 9.29157 10.2917 6.77843 7.95626 9.29157 10.2917 7.22889 8.40672 9.66667 7.22889 8.40672 9.66667 7.68762 8.86545 9.9375 7.68762 8.86545 9.9375 8.15492 9.33275 10.2083 8.15492 9.33275 10.2083 8.63113 9.70833 10.5 8.63113 9.70833 10.5 9.11658 9.97917 9.11658 9.97917 9.5625 10.25 9.61164 10.3125 9.77083 10.4375 10.0625 9.97917 1.42018 1.84754 2.28233 2.72482 3.17528 3.63401 4.10132 4.57752 5.06297 5.55804 6.06311 6.57859 7.10492 7.64258 8.19205 8.75387 9.32861 9.875 10.4167 6.47378 7.65161 8.98693 10.1042 6.47378 7.65161 8.98693 10.1042 6.90114 8.07897 9.41429 10.375 6.90114 8.07897 9.41429 10.375 7.33594 8.51377 9.72917 7.33594 8.51377 9.72917 7.77843 8.95626 9.97917 7.77843 8.95626 9.97917 8.22889 9.40672 10.2292 8.22889 9.40672 10.2292 8.68762 9.75 8.68762 9.75 9.15492 10 9.15492 10 9.58333 10.25 9.63113 10.3333 9.77083 10.4375 10.0417 9.95833 10.5 10.4792 4.42018 4.84754 5.28233 5.72482 6.17528 6.63401 7.10132 7.57752 8.06297 8.55804 9.06311 9.57859 10.0417 10.5 9.47378 10.1667 9.47378 10.1667 9.6875 10.3333 9.875 9.83333 10.2083 10.1042 7.42018 7.84754 8.28233 8.72482 9.17528 9.625 10.0208 10.4375 10.3958 1.01881 3.40403 4 2.2939 1.22722 1.33203 1.53081 2.06842 2.63434 3.23172 3.86426 4.53635 5.25328 6.02147 6.8488 7.74515 8.7231 9.77083 10.5 1.01881 3.40403 3.52083 3.64583 3.77083 3.875 3.97917 2.2939 1.22722 1.33203 1.53081 2.06842 2.63434 3.23172 3.83333 4.39583 
</DataArray>
<DataArray type="Float32" Name="organType" NumberOfComponents="1" format="ascii" >
2 2 2 2 2 2 2 2 2 2 2 2 2 2 2 2 2 2 2 2 2 2 2 2 2 2 2 2 2 2 2 2 2 2 2 2 2 2 2 2 2 2 2 2 2 2 2 2 2 2 2 2 2 2 2 2 2 2 2 2 2 2 2 2 2 2 2 2 2 2 2 2 2 2 2 2 2 2 2 2 2 2 2 2 2 2 2 2 2 2 2 2 2 2 2 2 2 2 2 2 2 2 2 2 2 2 2 2 2 2 2 2 2 2 2 2 2 2 2 2 2 2 2 2 2 2 2 2 2 2 2 2 2 2 2 2 2 2 2 2 2 2 2 2 2 2 2 2 2 2 2 2 2 2 2 2 2 2 2 2 2 2 2 2 2 2 2 2 2 2 2 2 2 2 2 2 2 2 2 2 2 2 2 2 2 2 2 2 2 2 2 2 3 3 3 3 3 3 4 4 4 4 4 4 4 4 4 4 4 4 4 3 3 3 3 3 3 3 3 3 3 4 4 4 4 4 4 
</DataArray>

</CellData>
<Points>
<DataArray type="Float32" Name="Coordinates" NumberOfComponents="3" format="ascii" >
0 0 -0.3 -0.298434 -0.304855 -1.20443 -0.15398 -0.686486 -2.11739 0.25803 -1.05323 -2.95151 0.650748 -1.41329 -3.79775 0.940822 -1.69206 -4.71325 0.962068 -1.61986 -5.71042 1.09866 -1.4331 -6.68328 1.30377 -1.24679 -7.64412 1.24548 -1.06699 -8.6261 1.08407 -0.888164 -9.59665 1.09423 -0.42633 -10.4836 1.04017 -0.0780614 -11.4194 1.04372 0.269629 -12.357 1.0798 0.599437 -13.3004 1.10645 0.979985 -14.2247 1.04715 1.29865 -15.1707 1.15254 1.43179 -16.1562 1.52429 1.55991 -17.0757 1.79087 1.72571 -18.0251 2.55255 1.87497 -18.6556 0.0439223 -0.540903 -2.11387 -0.447197 -0.693829 -2.97143 -0.10434 -0.792904 -3.90558 -0.597332 -0.85709 -4.77324 -0.927752 -0.975474 -1.59715 -1.50882 -1.40061 -2.29115 -1.6206 -1.18735 -3.26172 -2.14043 -0.993926 -4.09381 -0.294543 -1.27324 -2.91487 -0.318963 -1.53622 -3.87936 -0.404216 -1.80357 -4.83918 -0.153457 -1.39116 -5.71498 -0.180823 -0.389115 -3.07178 -0.077805 -0.0942563 -4.02175 0.0805064 0.222522 -4.95694 0.258649 0.610222 -5.86135 0.327213 -0.670595 -3.87281 0.40488 -0.312299 -4.80318 0.78616 -0.729255 -5.62827 1.19913 -0.97874 -6.50418 0.79638 -1.49323 -3.67024 0.535461 -1.77828 -4.59256 0.550176 -2.05227 -5.55418 0.736796 -2.00246 -6.53534 0.824602 -1.74599 -4.72462 0.981861 -1.8311 -5.7085 0.985219 -1.68196 -6.69731 1.35378 -1.98532 -7.57602 1.18814 -1.70809 -4.58788 0.906415 -1.89908 -5.52817 0.742552 -2.21467 -6.46281 0.711956 -2.2527 -7.46162 1.52527 -1.06342 -5.22631 1.86422 -0.193331 -5.58417 2.13697 0.467262 -6.28362 1.21986 -2.63449 -4.52897 1.82489 -3.24315 -5.04225 2.36711 -3.07443 -5.86538 1.32127 -1.45799 -6.62953 1.82436 -1.29819 -7.47886 1.82795 -1.57562 -8.4396 1.03856 -1.7087 -6.70352 1.10872 -1.79754 -7.69709 1.27281 -1.77947 -8.68337 1.95056 -1.52177 -7.19942 2.91204 -1.60704 -7.46074 3.5517 -1.9766 -8.13472 0.980369 -1.7733 -7.61616 0.899204 -2.0561 -8.5719 0.350555 -2.16761 -9.40048 0.896942 -1.23699 -8.55757 0.77557 -1.22761 -9.55014 0.668794 -1.64474 -10.4527 1.31959 -0.690145 -8.47472 1.23806 -0.19666 -9.34065 0.856193 -0.486718 -10.2182 0.442688 -0.660897 -9.06268 -0.198065 -0.875474 -9.79983 1.44985 -1.07372 -9.60497 1.3426 -1.08012 -10.5992 1.45355 -1.36602 -10.3936 1.48379 -1.81394 -11.2872 1.36392 -1.21895 -10.4979 0.817722 -1.43326 -11.3077 1.57706 -0.455154 -11.3588 1.23647 -0.639085 -12.2808 1.04388 -0.0160104 -11.3941 1.53352 -0.28333 -12.2647 0.376805 -0.169024 -1.21074 0.730797 -0.337997 -2.1306 1.16682 -0.538908 -3.00782 1.83721 -0.731701 -3.72434 2.11997 -0.90501 -4.66775 2.34043 -1.25736 -5.57728 2.3593 -1.6024 -6.51568 1.93829 -1.91256 -7.36805 1.8237 -2.50107 -8.16838 1.71207 -3.10023 -8.96119 1.68059 -3.501 -9.87683 1.98168 -3.93297 -10.727 1.85622 -4.25395 -11.6657 1.65767 -4.50034 -12.6143 1.6396 -4.33671 -13.6007 1.41295 -4.17669 -14.5614 1.00409 -4.40969 -15.4438 0.637918 -4.50432 -16.3695 0.716133 -4.6214 -17.3595 0.46164 -1.09732 -1.57279 0.546184 -1.41979 -2.51558 0.295117 -1.62306 -3.46197 0.531431 -1.80212 -4.417 0.192016 -0.755788 -1.99913 0.270034 -0.568739 -2.97838 0.360142 -0.487693 -3.97101 0.117234 -0.153503 -4.88167 1.16193 -0.591387 -2.99658 1.30223 -0.387821 -3.96553 1.33647 -0.18541 -4.94423 1.66378 -0.152445 -5.88858 1.54079 -0.869894 -2.37758 2.15513 -1.35325 -3.00123 2.20174 -1.34553 -4.00012 2.15538 -0.58263 -4.64497 1.2453 -0.648083 -3.99874 1.30502 -0.757239 -4.99097 0.635626 -0.556595 -5.70626 0.586241 -0.711368 -3.80355 0.792298 -0.654334 -4.78042 1.22625 -0.598953 -5.67965 1.98397 -0.519253 -4.69043 1.62845 -0.333947 -5.60655 1.58443 -0.274922 -6.60383 1.68851 -1.10799 -4.63883 1.50439 -1.56388 -5.50962 2.0871 -1.8778 -6.25922 2.05082 -0.735503 -5.65085 2.19358 -0.569808 -6.62664 2.35376 -0.437938 -7.60488 2.17886 -1.34327 -5.56467 2.24487 -0.942508 -6.47847 1.52785 -0.682872 -7.12537 2.80767 -2.14106 -5.54968 2.55652 -3.01966 -5.95587 2.62139 -1.50331 -6.50495 2.76389 -1.79582 -7.45053 1.95163 -2.03841 -7.31798 1.81962 -2.45574 -8.2171 2.1894 -2.11783 -7.3556 2.62152 -2.53285 -8.15624 1.94062 -1.58403 -8.31254 2.0709 -1.2582 -9.24895 1.70991 -2.45795 -8.17452 1.37488 -2.8628 -9.02532 1.88266 -2.37535 -9.15869 2.10133 -2.36195 -10.1344 1.65042 -2.3249 -9.13737 1.88141 -3.70121 -9.74231 2.33047 -3.67478 -9.49735 1.24178 -3.98407 -10.6345 0.287006 -0.376786 -1.18072 0.310436 -0.739965 -2.11214 -0.0706496 -0.908242 -3.02124 -0.0255409 -1.21325 -3.97252 0.251298 -1.50985 -4.88651 0.517275 -1.62136 -5.84402 0.334287 -1.72159 -6.82201 0.319726 -1.79252 -7.81939 0.298092 -1.84877 -8.81757 0.278965 -1.90101 -9.81602 0.69976 -1.94797 -10.722 0.680727 -1.99019 -11.7209 0.589509 -2.05361 -12.7147 0.60303 -2.10923 -13.7131 0.600622 -0.778933 -2.0409 0.121089 -1.36295 -2.69586 -0.138755 -0.440508 -2.0833 -0.98648 -0.429048 -2.61362 0.322773 -1.05695 -3.06049 0.250232 -0.544199 -3.91596 0.150226 -1.0761 -3.04023 -0.265463 -0.976004 -3.99973 -0.103733 -1.697 -3.63506 -0.228648 -1.74215 -4.79654 0.0419346 -0.357934 -1.2328 -0.245501 -0.696143 -2.12891 -0.170874 -1.05694 -3.05856 -0.302269 -1.21226 -4.03765 0.0137908 -1.3519 -4.97605 -0.0713643 -1.44758 -5.96782 -0.0413206 -1.46531 -6.96721 0.30197 -1.62347 -7.89302 0.282925 0.238213 -1.22909 0.10166 -0.0259006 0.694482 0.213441 -0.0396768 1.68812 0.271396 -0.0494024 2.20506 0.383181 -0.0680343 3.19862 0.39428 -0.0698442 3.29799 0.405605 -0.0710172 3.39734 0.304979 -0.0777018 2.68345 0.508299 -0.129503 4.67241 0.711619 -0.181304 6.66137 0.914938 -0.233105 8.65034 1.59137 -0.308868 10.5309 2.30683 -0.458846 12.3926 3.05591 -0.699175 14.2314 3.88785 -0.946237 16.0332 4.83898 -1.17678 17.7774 5.85196 -1.42434 19.4841 6.93482 -1.6339 21.1525 8.0809 -1.90253 22.7693 8.99116 -2.07503 23.9361 0.105774 -0.0164902 0.694253 0.211159 -0.0378971 1.68845 0.22204 -0.0400929 1.79072 0.233909 -0.0424461 1.90313 0.246729 -0.0441726 2.02196 0.257654 -0.0453099 2.12448 0.269561 -0.0463222 2.22705 0.386068 -0.0554325 3.2202 0.398278 -0.055378 3.31945 0.4107 -0.0557549 3.41867 0.317323 -0.0494705 2.68276 0.528872 -0.0824508 4.67127 0.74042 -0.115431 6.65977 0.951969 -0.148412 8.64828 0.699054 -0.0448183 10.6295 0.375117 0.108035 12.5972 
</DataArray>
</Points>
<Lines>
<DataArray type="Int32" Name="connectivity" NumberOfComponents="1" format="ascii" >
0 1 1 2 2 3 3 4 4 5 5 6 6 7 7 8 8 9 9 10 10 11 11 12 12 13 13 14 14 15 15 16 16 17 17 18 18 19 19 20 1 21 21 22 22 23 23 24 1 25 25 26 26 27 27 28 2 29 29 30 30 31 31 32 2 33 33 34 34 35 35 36 3 37 37 38 38 39 39 40 3 41 41 42 42 43 43 44 4 45 45 46 46 47 47 48 4 49 49 50 50 51 51 52 5 53 53 54 54 55 5 56 56 57 57 58 6 59 59 60 60 61 6 62 62 63 63 64 7 65 65 66 66 67 7 68 68 69 69 70 8 71 71 72 72 73 8 74 74 75 75 76 9 77 77 78 9 79 79 80 10 81 81 82 10 83 83 84 11 85 85 86 11 87 12 88 0 89 89 90 90 91 91 92 92 93 93 94 94 95 95 96 96 97 97 98 98 99 99 100 100 101 101 102 102 103 103 104 104 105 105 106 106 107 89 108 108 109 109 110 110 111 89 112 112 113 113 114 114 115 90 116 116 117 117 118 118 119 90 120 120 121 121 122 122 123 91 124 124 125 125 126 91 127 127 128 128 129 92 130 130 131 131 132 92 133 133 134 134 135 93 136 136 137 137 138 93 139 139 140 140 141 94 142 142 143 94 144 144 145 95 146 146 147 95 148 148 149 96 150 150 151 96 152 152 153 97 154 154 155 97 156 98 157 98 158 99 159 0 160 160 161 161 162 162 163 163 164 164 165 165 166 166 167 167 168 168 169 169 170 170 171 171 172 172 173 160 174 174 175 160 176 176 177 161 178 178 179 161 180 162 181 162 182 163 183 0 184 184 185 185 186 186 187 187 188 188 189 189 190 190 191 0 192 0 193 193 194 194 195 195 196 196 197 197 198 193 199 199 200 200 201 201 202 202 203 203 204 204 205 205 206 206 207 207 208 208 209 209 210 210 211 0 212 212 213 213 214 214 215 215 216 216 217 217 218 218 219 219 220 220 221 212 222 222 223 223 224 224 225 225 226 226 227 
</DataArray>
<DataArray type="Int32" Name="offsets" NumberOfComponents="1" format="ascii" >
2 4 6 8 10 12 14 16 18 20 22 24 26 28 30 32 34 36 38 40 42 44 46 48 50 52 54 56 58 60 62 64 66 68 70 72 74 76 78 80 82 84 86 88 90 92 94 96 98 100 102 104 106 108 110 112 114 116 118 120 122 124 126 128 130 132 134 136 138 140 142 144 146 148 150 152 154 156 158 160 162 164 166 168 170 172 174 176 178 180 182 184 186 188 190 192 194 196 198 200 202 204 206 208 210 212 214 216 218 220 222 224 226 228 230 232 234 236 238 240 242 244 246 248 250 252 254 256 258 260 262 264 266 268 270 272 274 276 278 280 282 284 286 288 290 292 294 296 298 300 302 304 306 308 310 312 314 316 318 320 322 324 326 328 330 332 334 336 338 340 342 344 346 348 350 352 354 356 358 360 362 364 366 368 370 372 374 376 378 380 382 384 386 388 390 392 394 396 398 400 402 404 406 408 410 412 414 416 418 420 422 424 426 428 430 432 434 436 438 440 442 444 446 448 450 452 454 
</DataArray>

</Lines>
</Piece>
</PolyData>
</VTKFile>
