% Model:              Onedradial_solutes_zeroconc_diff.mph
% Version:            COMSOL 5.5.0.306
% Date:               Apr 17 2020, 18:03
% Dimension:          1
% Nodes:              1741
% Expressions:        49
% Description:        Liniengraph
% R                       Height                   Height                   Height                   Height                   Height                   Height                   Height                   Height                   Height                   Height                   Height                   Height                   Height                   Height                   Height                   Height                   Height                   Height                   Height                   Height                   Height                   Height                   Height                   Height                   Height                   Height                   Height                   Height                   Height                   Height                   Height                   Height                   Height                   Height                   Height                   Height                   Height                   Height                   Height                   Height                   Height                   Height                   Height                   Height                   Height                   Height                   Height                   Height                   Height
0                         0                        0                        0                        0                        0                        0                        0                        0                        0                        0                        0                        0                        0                        0                        0                        0                        0                        0                        0                        0                        0                        0                        0                        0                        0                        0                        0                        0                        0                        0                        0                        0                        0                        0                        0                        0                        0                        0                        0                        0                        0                        0                        0                        0                        0                        0                        0                        0                        0
3.333333333333348E-4      0.0032980001173531625    2.8976614587283476E-4    2.2467573646544985E-4    1.9531928508818592E-4    1.775442189760349E-4     1.6529425532299085E-4    1.5617459766859373E-4    1.4900883073364722E-4    1.431918783481545E-4     1.383365165443508E-4     1.3418389044092828E-4    1.3057281831178365E-4    1.2740457243864384E-4    1.2460009906074623E-4    1.2208941995714147E-4    1.1981920197312217E-4    1.177516953370426E-4     1.1585946109206528E-4    1.1411490610744682E-4    1.1250263413075472E-4    1.1100675588552263E-4    1.0961628379771909E-4    1.0831632214106591E-4    1.0709843303004487E-4    1.0595238824100174E-4    1.0487112839209907E-4    1.0384830650343328E-4    1.0287822878019287E-4    1.0195571153243855E-4    1.0107716188953389E-4    1.0023976008630051E-4    9.943937906116533E-5     9.867350057636342E-5     9.794111353668489E-5     9.724137943338272E-5     9.656880837903706E-5     9.592214842939204E-5     9.530099064272195E-5     9.470438427724859E-5     9.412862650360846E-5     9.357302105085266E-5     9.303669378145201E-5     9.251863237340201E-5     9.201702542647177E-5     9.15311887082608E-5      9.106028387712431E-5     9.060354273257129E-5     9.015999781247105E-5     8.972913948957365E-5
6.666666666666661E-4      0.006596000234706325     5.795322917456695E-4     4.493514729308997E-4     3.9063857017637184E-4    3.550884379520698E-4     3.305885106459817E-4     3.1234919533718747E-4    2.9801766146729443E-4    2.86383756696309E-4      2.766730330887016E-4     2.6836778088185656E-4    2.611456366235673E-4     2.548091448772877E-4     2.4920019812149245E-4    2.4417883991428293E-4    2.3963840394624435E-4    2.355033906740852E-4     2.3171892218413055E-4    2.2822981221489364E-4    2.2500526826150943E-4    2.2201351177104526E-4    2.1923256759543818E-4    2.1663264428213182E-4    2.1419686606008974E-4    2.119047764820035E-4     2.0974225678419814E-4    2.0769661300686657E-4    2.0575645756038574E-4    2.039114230648771E-4     2.0215432377906778E-4    2.0047952017260103E-4    1.9887875812233066E-4    1.9734700115272685E-4    1.9588222707336977E-4    1.9448275886676543E-4    1.9313761675807413E-4    1.9184429685878407E-4    1.906019812854439E-4     1.8940876855449718E-4    1.8825725300721693E-4    1.8714604210170533E-4    1.8607338756290403E-4    1.8503726474680403E-4    1.8403405085294354E-4    1.830623774165216E-4     1.8212056775424861E-4    1.8120708546514257E-4    1.803199956249421E-4     1.794582789791473E-4
0.0010000000000000009     0.009894000352059487     8.692984376185044E-4     6.740272093963495E-4     5.859578552645578E-4     5.326326569281047E-4     4.958827659689726E-4     4.6852379300578125E-4    4.470264922009417E-4     4.295756350444635E-4     4.1500954963305243E-4    4.0255167132278487E-4    3.9171845493535094E-4    3.8221371731593154E-4    3.738002971822387E-4     3.662682598714244E-4     3.5945760591936653E-4    3.532550860111278E-4     3.4757838327619585E-4    3.423447183223405E-4     3.375079023922642E-4     3.330202676565679E-4     3.288488513931573E-4     3.2494896642319774E-4    3.2129529909013464E-4    3.1785716472300526E-4    3.146133851762972E-4     3.1154491951029985E-4    3.086346863405786E-4     3.058671345973157E-4     3.032314856686017E-4     3.0071928025890155E-4    2.98318137183496E-4      2.9602050172909027E-4    2.9382334061005467E-4    2.917241383001482E-4     2.897064251371112E-4     2.8776644528817613E-4    2.8590297192816587E-4    2.841131528317458E-4     2.823858795108254E-4     2.80719063152558E-4      2.7911008134435606E-4    2.7755589712020605E-4    2.760510762794153E-4     2.745935661247824E-4     2.7318085163137294E-4    2.718106281977139E-4     2.704799934374132E-4     2.69187418468721E-4
0.0013333333333333357     0.009938098515379405     0.0011441024419889232    8.877173304335338E-4     7.718958175536521E-4     7.01724823186001E-4      6.533479838738328E-4     6.173258502999061E-4     5.890176067521626E-4     5.660351739618501E-4     5.468506591758515E-4     5.304419286869185E-4     5.161724183345117E-4     5.036522164137137E-4     4.925690971852707E-4     4.826467278168254E-4     4.736744689874691E-4     4.6550318521167003E-4    4.580244558822798E-4     4.5112931369147713E-4    4.447569117996551E-4     4.3884445562436417E-4    4.3334852881315246E-4    4.2821029000921846E-4    4.2339639543650086E-4    4.18866436311701E-4      4.145925191031588E-4     4.105495622274331E-4     4.067150669105046E-4     4.030685476238934E-4     3.995958033557578E-4     3.962856865400891E-4     3.931218925478674E-4     3.9009446964217813E-4    3.871994176413063E-4     3.8443342041271717E-4    3.817747865353682E-4     3.792185673602816E-4     3.7676314499408213E-4    3.7440476151260005E-4    3.7212878537415796E-4    3.699324645609219E-4     3.67812344511514E-4      3.657644249100464E-4     3.637815448646291E-4     3.6186100091338183E-4    3.5999947977125355E-4    3.581939452091817E-4     3.5644057287906355E-4    3.547373484453186E-4
0.001666666666666667      0.009982196678699321     0.001418906446359342     0.001101407451470718     9.578337798427464E-4     8.708169894438971E-4     8.108132017786929E-4     7.661279075940308E-4     7.310087213033835E-4     7.024947128792367E-4     6.786917687186504E-4     6.58332186051052E-4      6.406263817336724E-4     6.250907155114958E-4     6.113378971883026E-4     5.990251957622263E-4     5.878913320555716E-4     5.777512844122123E-4     5.684705284883637E-4     5.599139090606138E-4     5.520059212070459E-4     5.446686435921604E-4     5.378482062331476E-4     5.314716135952392E-4     5.25497491782867E-4      5.198757079003967E-4     5.145716530300204E-4     5.095542049445663E-4     5.047954474804305E-4     5.002699606504711E-4     4.959601210429139E-4     4.918520928212767E-4     4.879256479122388E-4     4.84168437555266E-4      4.805754946725579E-4     4.7714270252528616E-4    4.7384314793362514E-4    4.7067068943238707E-4    4.6762331805999833E-4    4.6469637019345424E-4    4.618716912374905E-4     4.5914586596928575E-4    4.565146076786719E-4     4.539729526998867E-4     4.5151201344984285E-4    4.4912843570198125E-4    4.468181079111341E-4     4.445772622206495E-4     4.4240115232071386E-4    4.4028727842191615E-4
0.0020000000000000018     0.010026294842019237     0.0016937104507297608    0.0013150975725079023    0.0011437717421318408    0.0010399091557017934    9.682784196835531E-4     9.149299648881556E-4     8.729998358546043E-4     8.389542517966232E-4     8.105328782614494E-4     7.862224434151857E-4     7.650803451328331E-4     7.465292146092778E-4     7.301066971913345E-4     7.154036637076272E-4     7.021081951236742E-4     6.899993836127545E-4     6.789166010944477E-4     6.686985044297504E-4     6.592549306144368E-4     6.504928315599567E-4     6.423478836531428E-4     6.347329371812599E-4     6.275985881292332E-4     6.208849794890924E-4     6.14550786956882E-4      6.085588476616994E-4     6.028758280503565E-4     5.974713736770489E-4     5.9232443873007E-4       5.874184991024643E-4     5.827294032766102E-4     5.782424054683538E-4     5.739515717038096E-4     5.698519846378552E-4     5.659115093318821E-4     5.621228115044926E-4     5.584834911259146E-4     5.549879788743085E-4     5.516145971008231E-4     5.483592673776496E-4     5.452168708458299E-4     5.421814804897271E-4     5.392424820350566E-4     5.363958704905807E-4     5.336367360510147E-4     5.309605792321173E-4     5.283617317623642E-4     5.258372083985138E-4
0.0023333333333333366     0.010015354161139127     0.001953426701972413     0.0015182479843976338    0.0013208675278226396    0.0012011073188243535    0.0011184701283197898    0.0010569065631139429    0.0010085101996583007    9.692078175510018E-4     9.363949383161745E-4     9.083260822313269E-4     8.839137319220095E-4     8.624917440549851E-4     8.435266437582081E-4     8.265464902522717E-4     8.111913896147837E-4     7.972063537692927E-4     7.844059265426695E-4     7.726039777365959E-4     7.61696380841496E-4      7.515756795244299E-4     7.421676057271135E-4     7.333715797746435E-4     7.251305543349838E-4     7.17375435837948E-4      7.10058513623176E-4      7.031368743567116E-4     6.965720304816348E-4     6.903289283042616E-4     6.843832582971156E-4     6.787159282618867E-4     6.732990603541885E-4     6.681156262807774E-4     6.631587626462059E-4     6.584227849473608E-4     6.538705935229482E-4     6.494937160476897E-4     6.452893765700915E-4     6.412511419304103E-4     6.373539827425517E-4     6.335931881786054E-4     6.29962846810948E-4      6.26456114769127E-4      6.230607287518392E-4     6.197720651247652E-4     6.165844534276811E-4     6.134926967132654E-4     6.104902467076946E-4     6.07573655209862E-4
0.002666666666666668      0.010004413480259015     0.0022131429532150646    0.0017213983962873652    0.0014979633135134385    0.0013623054819469134    0.0012686618369560265    0.0011988831613397304    0.001144020563461997     0.0010994613833053802    0.0010622569983708995    0.001030429721047468     0.0010027471187111859    9.784542735006923E-4     9.569465903250816E-4     9.37689316796916E-4      9.202745841058932E-4     9.044133239258309E-4     8.898952519908912E-4     8.765094510434413E-4     8.641378310685551E-4     8.52658527488903E-4      8.419873278010842E-4     8.32010222368027E-4      8.226625205407344E-4     8.138658921868035E-4     8.055662402894698E-4     7.977149010517237E-4     7.90268232912913E-4      7.831864829314743E-4     7.76442077864161E-4      7.700133574213091E-4     7.638687174317667E-4     7.579888470932008E-4     7.523659535886022E-4     7.469935852568662E-4     7.418296777140143E-4     7.368646205908867E-4     7.320952620142682E-4     7.275143049865119E-4     7.230933683842804E-4     7.188271089795612E-4     7.147088227760661E-4     7.107307490485269E-4     7.068789754686218E-4     7.031482597589495E-4     6.995321708043476E-4     6.960248141944136E-4     6.92618761653025E-4      6.893101020212102E-4
0.0030000000000000027     0.009993472799378905     0.0024728592044577164    0.0019245488081770965    0.0016750590992042373    0.0015235036450694736    0.001418853545592263     0.0013408597595655177    0.0012795309272656933    0.0012297149490597588    0.0011881190584256244    0.0011525333598636093    0.0011215805055003623    0.0010944168029463994    0.0010703665368919553    0.0010488321433415604    0.0010293577785970027    0.001011620294082369     9.95384577439113E-4      9.804149243502868E-4     9.665792812956143E-4     9.537413754533762E-4     9.41807049875055E-4      9.306488649614105E-4     9.20194486746485E-4      9.103563485356591E-4     9.010739669557638E-4     8.922929277467359E-4     8.839644353441914E-4     8.76044037558687E-4      8.685008974312064E-4     8.613107865807315E-4     8.54438374509345E-4      8.478620679056243E-4     8.415731445309986E-4     8.355643855663718E-4     8.297887619050804E-4     8.242355251340837E-4     8.189011474584451E-4     8.137774680426137E-4     8.088327540260091E-4     8.04061029780517E-4      7.994547987411843E-4     7.950053833279268E-4     7.906972221854044E-4     7.865244543931338E-4     7.82479888181014E-4      7.785569316755617E-4     7.747472765983554E-4     7.710465488325586E-4
0.0033333333333333375     0.009996188926214213     0.0027173750819633334    0.002117536840976391     0.0018437748321456057    0.001677288542438371     0.0015622517163947267    0.0014764844269752086    0.0014090259022854548    0.0013542191529648025    0.0013084503009358278    0.0012692907405588523    0.0012352262889539266    0.0012053293943736316    0.0011788571338619534    0.0011551527355481896    0.0011337150272940516    0.001114188540012804     0.0010963145592397217    0.001079833993865611     0.0010646014841374195    0.0010504670302402739    0.0010373270190266806    0.0010250412917988754    0.0010135302403355777    0.0010026975353672803    9.924766236951976E-4     9.82807617031426E-4      9.736368182510708E-4     9.649152992343854E-4     9.566091078575387E-4     9.486915580298855E-4     9.411237847257341E-4     9.338820209371664E-4     9.269566465627831E-4     9.203397051693505E-4     9.139794507185943E-4     9.07864047766624E-4      9.019896053349899E-4     8.963471378673791E-4     8.909017249494808E-4     8.856467874067893E-4     8.805740736238731E-4     8.756740335541393E-4     8.709295284058482E-4     8.663341096014158E-4     8.618798602001539E-4     8.575595229630739E-4     8.533639485027192E-4     8.492883207990831E-4
0.0036666666666666688     0.009998905053049519     0.00296189095946895      0.002310524873775685     0.002012490565086974     0.0018310734398072682    0.0017056498871971901    0.0016121090943848992    0.0015385208773052164    0.001478723356869846     0.0014287815434460309    0.001386048121254095     0.001348872072407491     0.0013162419858008636    0.0012873477308319513    0.0012614733277548187    0.0012380722759911004    0.0012167567859432385    0.0011972445410403305    0.001179253063380935     0.0011626236869792246    0.0011471926850271713    0.0011328469881783062    0.00111943371863634      0.0011068659939246705    0.0010950387221989016    0.0010838792804346313    0.001073322306316116     0.0010633092011579502    0.0010537865609100837    0.0010447173182838712    0.0010360723294790394    0.0010278091949421232    0.0010199019739687086    0.0010123401485945675    0.0010051150247723292    9.98170139532108E-4      9.914925703991642E-4     9.850780632115347E-4     9.789168076921445E-4     9.729706958729524E-4     9.672325450330615E-4     9.616933485065619E-4     9.563426837803517E-4     9.511618346262918E-4     9.461437648096977E-4     9.412798322192937E-4     9.36562114250586E-4      9.319806204070828E-4     9.275300927656075E-4
0.0040000000000000036     0.010001621179884826     0.003206406836974567     0.0025035129065749794    0.0021812062980283427    0.0019848583371761654    0.0018490480579996535    0.00174773376179459      0.0016680158523249779    0.0016032275607748897    0.0015491127859562342    0.001502805501949338     0.0014625178558610552    0.0014271545772280958    0.0013958383278019494    0.001367793919961448     0.0013424295246881493    0.0013193250318736733    0.0012981745228409392    0.001278672132896259     0.00126064588982103      0.0012439183398140687    0.001228366957329932     0.001213826145473805     0.0012002017475137633    0.0011873799090305229    0.001175281937174065     0.0011638369956008061    0.0011529815840648297    0.001142657822585782     0.0011328255287102035    0.0011234531009281935    0.0011144946051585124    0.0011059219270002506    0.001097723650626352     0.0010898903443753078    0.0010823608283456218    0.0010751210930317046    0.0010681665210880793    0.0010614864775169099    0.001055039666796424     0.0010488183026593338    0.0010428126233892508    0.0010370113340065642    0.0010313941408467355    0.0010259534200179796    0.0010206798042384337    0.0010155647055380983    0.0010105972923114465    0.001005771864732132
0.004333333333333338      0.010000946502741775     0.0034356516602152623    0.002686664933919732     0.002341942146646255     0.0021316472464369047    0.0019860702515464377    0.0018774190379218295    0.0017919012923461482    0.0017223809701435225    0.0016643046902789296    0.0016146014115505545    0.0015713545301383534    0.0015333897888309962    0.0014997665317529234    0.0014696539906133865    0.0014424176436361549    0.0014176067821079696    0.0013948930692083011    0.0013739486564241156    0.0013545888902757668    0.0013366232390811207    0.001319920191594157     0.0013043021325684443    0.0012896679849247411    0.0012758955944041032    0.0012629005043604652    0.0012506066690592859    0.0012389459298822478    0.0012278561441112505    0.0012172941539305801    0.0012072260020061073    0.0011976024071135502    0.0011883931850815877    0.0011795860485791173    0.001171170854445222     0.0011630819458697229    0.0011553042740691372    0.0011478328691218655    0.0011406563080466688    0.0011337302658860748    0.0011270463799833296    0.0011205941693077377    0.0011143615089897344    0.0011083265942846271    0.0011024812436528353    0.0010968153982985772    0.0010913198352011742    0.0010859829178705691    0.0010807985243891335
0.00466666666666667       0.010000271825598723     0.0036648964834559566    0.0028698169612644837    0.0025026779952641675    0.0022784361556976436    0.002123092445093222     0.002007104314049069     0.0019157867323673185    0.0018415343795121553    0.0017794965946016249    0.0017263973211517707    0.0016801912044156514    0.0016396250004338962    0.0016036947357038972    0.0015715140612653248    0.0015424057625841603    0.0015158885323422657    0.0014916116155756628    0.001469225179951972     0.0014485318907305035    0.0014293281383481724    0.0014114734258583819    0.0013947781196630834    0.0013791342223357188    0.0013644112797776835    0.0013505190715468655    0.0013373763425177654    0.0013249102756996661    0.0013130544656367188    0.0013017627791509566    0.0012909989030840212    0.0012807102090685878    0.0012708644431629248    0.0012614484465318825    0.0012524513645151363    0.001243803063393824     0.0012354874551065698    0.0012274992171556515    0.0012198261385764277    0.0012124208649757252    0.0012052744573073254    0.0011983757152262244    0.0011917116839729044    0.0011852590477225188    0.0011790090672876908    0.0011729509923587207    0.00116707496486425      0.0011613685434296915    0.0011558251840461348
0.0050000000000000044     0.00999959714845567      0.003894141306696651     0.003052968988609236     0.00266341384388208      0.002425225064958383     0.002260114638640006     0.002136789590176308     0.002039672172388489     0.0019606877888807884    0.00189468849892432      0.0018381932307529871    0.0017890278786929495    0.0017458602120367964    0.0017076229396548713    0.0016733741319172632    0.0016423938815321656    0.001614170282576562     0.0015883301619430245    0.0015645017034798285    0.0015424748911852405    0.0015220330376152242    0.001503026660122607     0.0014852541067577228    0.0014686004597466967    0.0014529269651512638    0.0014381376387332659    0.0014241460159762451    0.0014108746215170842    0.0013982527871621872    0.001386231404371333     0.001374771804161935     0.0013638180110236255    0.0013533357012442619    0.001343310844484648     0.0013337318745850505    0.001324524180917925     0.0013156706361440024    0.0013071655651894375    0.0012989959691061866    0.001291111464065376     0.0012835025346313212    0.001276157261144711     0.0012690618589560744    0.0012621915011604104    0.0012555368909225465    0.0012490865864188642    0.001242830094527326     0.0012367541689888141    0.0012308518437031363
0.005333333333333339      0.009999764814302405     0.004108108556548891     0.003226574631010719     0.0028165201713273315    0.002565382968610908     0.002391126579422201     0.0022608971300409164    0.0021583041483158646    0.002074840342297819     0.002005084933497282     0.0019453657901373075    0.0018933881608511707    0.0018477456474370476    0.0018073115146456618    0.0017710919052840697    0.001738326850479342     0.0017084755353955008    0.0016811435164143685    0.0016559384023847096    0.0016326380926843145    0.0016110134426518333    0.0015909064394183732    0.0015721041059364909    0.0015544849449112782    0.0015379023558102808    0.0015222548877445862    0.0015074511212240153    0.001493409157820153     0.001480054271147453     0.001467334509528012     0.0014552089426714523    0.0014436184315760722    0.0014325266824679816    0.0014219188153045638    0.0014117825755281868    0.0014020391090349364    0.0013926702941214075    0.0013836701118582777    0.0013750248099754663    0.001366681128121753     0.0013586290001414178    0.0013508558212410571    0.0013433470178805674    0.0013360763139297633    0.001329033884055874     0.0013222076269934619    0.0013155864433401535    0.0013091563158428427    0.001302909875047491
0.0056666666666666705     0.009999932480149137     0.004322075806401131     0.0034001802734122013    0.0029696264987725826    0.002705540872263433     0.002522138520204396     0.0023850046699055247    0.00227693612424324      0.0021889928957148494    0.0021154813680702433    0.002052538349521628     0.001997748443009392     0.0019496310828372985    0.0019070000896364524    0.0018688096786508763    0.0018342598194265184    0.0018027807882144394    0.0017739568708857122    0.0017473751012895902    0.0017228012941833883    0.001699993847688442     0.0016787862187141393    0.0016589541051152588    0.0016403694300758595    0.0016228777464692976    0.0016063721367559063    0.0015907562264717854    0.0015759436941232216    0.0015618557551327185    0.0015484376146846907    0.0015356460811809692    0.0015234188521285187    0.001511717663691701     0.0015005267861244796    0.001489833276471323     0.0014795540371519474    0.0014696699520988124    0.0014601746585271177    0.0014510536508447458    0.00144225079217813      0.0014337554656515142    0.001425554381337403     0.0014176321768050602    0.001409961126699116     0.001402530877189201     0.0013953286675680594    0.001388342792152981     0.001381558462696871     0.0013749679063918454
0.006000000000000005      0.010000100145995871     0.004536043056253371     0.0035737859158136843    0.0031227328262178338    0.002845698775915958     0.0026531504609865913    0.002509112209770133     0.0023955681001706156    0.00230314544913188      0.0022258778026432047    0.002159710908905948     0.002102108725167613     0.0020515165182375494    0.002006688664627243     0.001966527452017683     0.0019301927883736947    0.001897086041033378     0.001866770225357056     0.001838811800194471     0.0018129644956824621    0.0017889742527250508    0.0017666659980099053    0.0017458041042940266    0.001726253915240441     0.0017078531371283144    0.0016904893857672266    0.0016740613317195556    0.0016584782304262902    0.0016436572391179843    0.0016295407198413695    0.0016160832196904862    0.0016032192726809652    0.0015909086449154206    0.0015791347569443955    0.001567883977414459     0.0015570689652689585    0.0015466696100762173    0.0015366792051959577    0.0015270824917140253    0.0015178204562345068    0.0015088819311616108    0.0015002529414337488    0.0014919173357295533    0.0014838459394684686    0.0014760278703225282    0.001468449708142657     0.0014610991409658087    0.0014539606095508996    0.0014470259377362
0.00633333333333334       0.010000058462745253     0.004734806510421725     0.003738109346837466     0.0032685200632801784    0.0029795474621039835    0.0027784746227628204    0.002627960982854356     0.0025092607906767516    0.0024126060949854027    0.0023317824401152543    0.002262558799016886     0.002202286614274855     0.002149341736719888     0.0021024229590791486    0.002060384320062163     0.002022348296992067     0.00198768900968796      0.001955949318724393     0.0019266765249002374    0.001899612845300683     0.0018744923586947171    0.0018511319042763966    0.0018292852174751995    0.0018088113918619368    0.0017895407322142782    0.0017713556772511376    0.0017541501880428954    0.001737829325511021     0.0017223063858340468    0.0017075210135655188    0.0016934255826258156    0.0016799516439586564    0.0016670570896467941    0.0016547245083617028    0.0016429396008082286    0.0016316110102283926    0.001620717674257885     0.001610252549451486     0.001600199656412581     0.0015904972536275523    0.001581133647134635     0.0015720942095446614    0.0015633620402534345    0.0015549065734553197    0.0015467164267002503    0.0015387775510875322    0.0015310770558007644    0.0015235986424450168    0.00151633374931182
0.006666666666666671      0.010000016779494632     0.0049335699645900784    0.0039024327778612476    0.0034143073003425227    0.003113396148292009     0.0029037987845390487    0.002746809755938578     0.0026229534811828873    0.002522066740838925     0.0024376870775873038    0.0023654066891278243    0.002302464503382096     0.0022471669552022264    0.0021981572535310543    0.0021542411881066434    0.0021145038056104393    0.0020782919783425414    0.00204512841209173      0.0020145412496060033    0.0019862611949189035    0.0019600104646643832    0.0019355978105428876    0.001912766330656372     0.0018913688684834326    0.0018712283273002418    0.0018522219687350482    0.001834239044366235     0.0018171804205957514    0.001800955532550109     0.0017855013072896678    0.0017707679455611447    0.0017566840152363475    0.0017432055343781674    0.0017303142597790097    0.001717995224201998     0.0017061530551878265    0.0016947657384395525    0.0016838258937070141    0.0016733168211111368    0.0016631740510205974    0.0016533853631076586    0.0016439354776555735    0.0016348067447773155    0.0016259672074421703    0.0016174049830779721    0.001609105394032407     0.00160105497063572      0.0015932366753391338    0.0015856415608874398
0.007000000000000006      0.009999975096244012     0.005132333418758432     0.004066756208885029     0.003560094537404867     0.0032472448344800344    0.0030291229463152774    0.0028656585290228005    0.0027366461716890234    0.002631527386692447     0.0025435917150593533    0.0024682545792387624    0.0024026423924893374    0.0023449921736845647    0.00229389154798296      0.0022480980561511237    0.0022066593142288115    0.0021688949469971233    0.0021343075054590667    0.0021024059743117696    0.0020729095445371245    0.0020455285706340496    0.0020200637168093787    0.001996247443837545     0.0019739263451049286    0.0019529159223862056    0.0019330882602189587    0.0019143279006895745    0.0018965315156804822    0.0018796046792661713    0.001863481601013817     0.001848110308496474     0.0018334163865140385    0.001819353979109541     0.0018059040111963168    0.0017930508475957677    0.0017806951001472604    0.00176881380262122      0.0017573992379625422    0.0017464339858096925    0.0017358508484136427    0.0017256370790806825    0.0017157767457664857    0.0017062514493011965    0.0016970278414290211    0.0016880935394556942    0.0016794332369772817    0.0016710328854706758    0.001662874708233251     0.00165494937246306