% Model:              Onedradial_solutes_zeroconc.mph
% Version:            COMSOL 5.5.0.306
% Date:               Apr 17 2020, 17:59
% Dimension:          1
% Nodes:              1741
% Expressions:        49
% Description:        Liniengraph
% R                       Height                   Height                   Height                   Height                   Height                   Height                   Height                   Height                   Height                   Height                   Height                   Height                   Height                   Height                   Height                   Height                   Height                   Height                   Height                   Height                   Height                   Height                   Height                   Height                   Height                   Height                   Height                   Height                   Height                   Height                   Height                   Height                   Height                   Height                   Height                   Height                   Height                   Height                   Height                   Height                   Height                   Height                   Height                   Height                   Height                   Height                   Height                   Height                   Height
0                         0                        0                        0                        0                        0                        0                        0                        0                        0                        0                        0                        0                        0                        0                        0                        0                        0                        0                        0                        0                        0                        0                        0                        0                        0                        0                        0                        0                        0                        0                        0                        0                        0                        0                        0                        0                        0                        0                        0                        0                        0                        0                        0                        0                        0                        0                        0                        0                        0
3.333333333333348E-4      0.0032980934337358187    3.000306556022462E-4     2.343187692517044E-4     2.086971335600979E-4     1.9468228224105895E-4    1.8565840631689084E-4    1.7771050382665022E-4    1.7102700210482985E-4    1.6710072844730426E-4    1.6464452249890827E-4    1.6268387557796406E-4    1.6099620991562254E-4    1.598180421004081E-4     1.5934928942065767E-4    1.5955209010153645E-4    1.5989458116529384E-4    1.603927699175075E-4     1.6124126428237854E-4    1.6260057311406114E-4    1.644583137167435E-4     1.66722820731882E-4      1.6941968174743303E-4    1.7275843178691483E-4    1.7702476320005875E-4    1.829253573556985E-4     1.911167599304684E-4     2.0453643643315208E-4    2.459065996871678E-4     2.5766761493717567E-4    2.5924220633167464E-4    2.5799624678710857E-4    2.5536068416663653E-4    2.522435106319038E-4     2.4900259141765325E-4    2.4577432811028594E-4    2.4265367569416233E-4    2.3967842908084882E-4    2.3684454914882372E-4    2.3413554739118496E-4    2.315645073231264E-4     2.291266646375247E-4     2.2681506348288963E-4    2.2461906000325644E-4    2.225336186907293E-4     2.2055094201964303E-4    2.1866347004747842E-4    2.1686393105816538E-4    2.1514509769746896E-4    2.1350139413560976E-4
6.666666666666661E-4      0.0065961868674716375    6.000613112044924E-4     4.686375385034088E-4     4.173942671201958E-4     3.893645644821179E-4     3.7131681263378167E-4    3.5542100765330044E-4    3.420540042096597E-4     3.342014568946085E-4     3.2928904499781653E-4    3.253677511559281E-4     3.219924198312451E-4     3.196360842008162E-4     3.1869857884131534E-4    3.191041802030729E-4     3.197891623305877E-4     3.20785539835015E-4      3.224825285647571E-4     3.252011462281223E-4     3.28916627433487E-4      3.33445641463764E-4      3.3883936349486606E-4    3.4551686357382966E-4    3.540495264001175E-4     3.65850714711397E-4      3.822335198609368E-4     4.0907287286630415E-4    4.918131993743356E-4     5.153352298743513E-4     5.184844126633493E-4     5.159924935742171E-4     5.107213683332731E-4     5.044870212638076E-4     4.980051828353065E-4     4.915486562205719E-4     4.8530735138832467E-4    4.7935685816169764E-4    4.7368909829764743E-4    4.682710947823699E-4     4.631290146462528E-4     4.582533292750494E-4     4.5363012696577926E-4    4.492381200065129E-4     4.450672373814586E-4     4.4110188403928606E-4    4.3732694009495683E-4    4.3372786211633076E-4    4.302901953949379E-4     4.270027882712195E-4
0.0010000000000000009     0.009894280301207457     9.000919668067387E-4     7.029563077551132E-4     6.260914006802937E-4     5.840468467231769E-4     5.569752189506725E-4     5.331315114799507E-4     5.130810063144896E-4     5.013021853419128E-4     4.939335674967249E-4     4.880516267338922E-4     4.8298862974686767E-4    4.794541263012243E-4     4.7804786826197306E-4    4.7865627030460936E-4    4.796837434958815E-4     4.8117830975252253E-4    4.8372379284713563E-4    4.878017193421834E-4     4.933749411502305E-4     5.001684621956461E-4     5.082590452422991E-4     5.182752953607446E-4     5.310742896001763E-4     5.487760720670955E-4     5.733502797914052E-4     6.136093092994563E-4     7.377197990615036E-4     7.730028448115271E-4     7.777266189950239E-4     7.739887403613258E-4     7.660820524999097E-4     7.567305318957114E-4     7.470077742529599E-4     7.373229843308579E-4     7.27961027082487E-4      7.190352872425465E-4     7.105336474464712E-4     7.024066421735549E-4     6.946935219693792E-4     6.873799939125741E-4     6.804451904486689E-4     6.738571800097694E-4     6.676008560721879E-4     6.616528260589291E-4     6.559904101424353E-4     6.505917931744962E-4     6.454352930924069E-4     6.405041824068293E-4
0.0013333333333333357     0.009938245847400287     0.0011838000017943926    9.248880368110841E-4     8.237915418387549E-4     7.68422120488793E-4      7.327518018843926E-4     7.013405807876654E-4     6.749093857612502E-4     6.593231774198908E-4     6.495178701642332E-4     6.416607436216337E-4     6.348694560478198E-4     6.300630801309776E-4     6.280267817095288E-4     6.286143508466765E-4     6.297260781921894E-4     6.314092773878325E-4     6.3442136602967E-4       6.393865104984157E-4     6.462231860480633E-4     6.54501562282535E-4      6.642751578037752E-4     6.764464647770034E-4     6.923332822784554E-4     7.137256828968884E-4     7.422603279712767E-4     7.87466436051312E-4      9.090583304784595E-4     9.542947087033262E-4     9.657630905353588E-4     9.660989488930023E-4     9.606685153394251E-4     9.527111825864937E-4     9.436725097170244E-4     9.341908960727329E-4     9.247224162723488E-4     9.154801520468753E-4     9.065051986755578E-4     8.977816460708017E-4     8.893926822881664E-4     8.813493871153154E-4     8.736486201066908E-4     8.662703185283585E-4     8.59210665784415E-4      8.5245603937068E-4       8.459855935033329E-4     8.397837257480148E-4     8.338290469177402E-4     8.28108788410007E-4
0.001666666666666667      0.009982211393593116     0.0014675080367820461    0.001146819765867055     0.001021491682997216     9.527973942544092E-4     9.085283848181125E-4     8.6954965009538E-4       8.367377652080108E-4     8.173441694978688E-4     8.051021728317415E-4     7.952698605093752E-4     7.867502823487719E-4     7.80672033960731E-4      7.780056951570844E-4     7.785724313887436E-4     7.797684128884973E-4     7.816402450231424E-4     7.851189392122043E-4     7.90971301654648E-4      7.990714309458959E-4     8.088346623694239E-4     8.202912703652512E-4     8.346176341932622E-4     8.535922749567346E-4     8.786752937266811E-4     9.111703761511481E-4     9.613235628031678E-4     0.0010803968618954155    0.0011355865725951252    0.0011537995620756936    0.0011582091574246789    0.0011552549781789405    0.0011486918332772758    0.001140337245181089     0.0011310588078146078    0.0011214838054622105    0.001111925016851204     0.0011024767499046445    0.0010931566499680484    0.0010840918426069535    0.0010753187803180567    0.0010668520497647126    0.0010586834570469475    0.0010508204754966421    0.0010432592526824307    0.0010359807768642304    0.0010289756583215333    0.0010222228007430736    0.0010157133944131847
0.0020000000000000018     0.010026176939785946     0.0017512160717696999    0.0013687514949230258    0.0012191918241556772    0.0011371726680200255    0.0010843049677518326    0.0010377587194030948    9.985661446547714E-4     9.753651615758467E-4     9.606864754992499E-4     9.488789773971167E-4     9.386311086497241E-4     9.312809877904843E-4     9.279846086046401E-4     9.285305119308107E-4     9.298107475848051E-4     9.318712126584524E-4     9.358165123947386E-4     9.425560928108803E-4     9.519196758437285E-4     9.631677624563128E-4     9.763073829267274E-4     9.92788803609521E-4      0.0010148512676350138    0.001043624904556474     0.0010800804243310195    0.0011351806895550237    0.0012517353933123715    0.0013168784364869244    0.0013418360336160285    0.0013503193659563553    0.001349841441018456     0.001344672483968058     0.0013370019806451536    0.0013279267195564829    0.0013182451946520725    0.0013083698816555326    0.0012984483011337312    0.0012885316538652953    0.0012787910029257409    0.0012692881735207981    0.0012600554794227345    0.0012510965955655365    0.0012424302852088692    0.0012340624659941816    0.0012259759602251282    0.0012181675908950519    0.001210616554568407     0.0012033180004163626
0.0023333333333333366     0.010015289111543844     0.0020189225919551787    0.0015789957483750248    0.0014066316242452703    0.0013119686097152325    0.0012509283787519273    0.0011972188972556883    0.0011519738970421774    0.0011250993266755933    0.0011080153316162238    0.0010942336305801096    0.0010822413945066867    0.001073562999541945     0.0010695202296995797    0.0010698664202490112    0.0010710165554953664    0.0010730290449983567    0.0010771545926703684    0.001084408007939004     0.0010945608436035374    0.001106739464600175     0.0011209324475181174    0.0011387736442151294    0.001162776003155525     0.0011938745940889945    0.0012319944935807684    0.0012887035990207687    0.0013995766800040622    0.0014664413274651875    0.0014955627330835621    0.0015075805677110966    0.001510044691456701     0.0015071527750656739    0.0015012045958386327    0.0014934179146040704    0.0014846964983729416    0.001475527757565375     0.0014661085928744815    0.0014565243778960676    0.0014469837728060362    0.0014375737640941447    0.0014283466843823932    0.0014193218504806933    0.0014105321807258554    0.0014019965749611394    0.0013937028436343277    0.0013856570297939874    0.0013778412805286774    0.0013702573966525712
0.002666666666666668      0.010004401283301741     0.0022866291121406575    0.0017892400018270237    0.0015940714243348633    0.0014867645514104392    0.0014175517897520218    0.0013566790751082817    0.0013053816494295832    0.0012748334917753398    0.0012553441877331977    0.0012395882837631027    0.0012258516803636491    0.0012158450112934058    0.0012110558507945192    0.0012112023285672114    0.0012122223634059275    0.0012141868773382608    0.001218492672945998     0.0012262599230671277    0.001237202011363346     0.001250311166744037     0.0012655575121095076    0.0012847584848207376    0.0013107007386760363    0.0013441242836215149    0.001383908562830517     0.0014422265084865135    0.0015474179666957527    0.0016160042184434505    0.0016492894325510954    0.0016648417694658379    0.0016702479418949459    0.0016696330661632895    0.0016654072110321113    0.0016589091096516576    0.0016511478020938104    0.0016426856334752172    0.0016337688846152316    0.0016245171019268396    0.0016151765426863313    0.0016058593546674912    0.0015966378893420518    0.00158754710539585      0.0015786340762428417    0.001569930683928097     0.001561429727043527     0.0015531464686929226    0.001545066006488948     0.0015371967928887798
0.0030000000000000027     0.009993513455059638     0.0025543356323261364    0.0019994842552790225    0.0017815112244244564    0.001661560493105646     0.0015841752007521165    0.0015161392529608752    0.001458789401816989     0.0014245676568750865    0.0014026730438501717    0.0013849429369460955    0.0013694619662206118    0.0013581270230448666    0.001352591471889459     0.0013525382368854118    0.0013534281713164888    0.001355344709678165     0.0013598307532216277    0.0013681118381952515    0.0013798431791231548    0.001393882868887899     0.0014101825767008976    0.001430743325426346     0.0014586254741965475    0.0014943739731540354    0.0015358226320802658    0.0015957494179522586    0.0016952592533874431    0.0017655671094217134    0.0018030161320186288    0.0018221029712205791    0.0018304511923331907    0.0018321133572609051    0.0018296098262255902    0.0018244003046992451    0.0018175991058146793    0.0018098435093850595    0.0018014291763559817    0.0017925098259576116    0.0017833693125666266    0.0017741449452408377    0.0017649290943017103    0.0017557723603110066    0.001746735971759828     0.0017378647928950547    0.0017291566104527263    0.001720635907591858     0.0017122907324492185    0.0017041361891249884
0.0033333333333333375     0.009996211787878032     0.0028061886417620517    0.0021986343727926206    0.001959318454527147     0.0018274045380994297    0.0017422711656608976    0.001667495154631306     0.0016044456294720814    0.00156669690986018      0.0015424373544192134    0.0015227473573775463    0.0015055275831246304    0.0014928381400200928    0.001486473369325592     0.0014860746514817006    0.0014866589226656172    0.0014883482300411422    0.0014928028526283459    0.0015013078955676492    0.0015134505067515124    0.0015280097307249238    0.0015449642088083638    0.0015663874499276945    0.0015953114468171584    0.001632142308516893     0.0016742490106357135    0.001734303187575524     0.0018295805034499485    0.0018979116156176902    0.0019366604241587671    0.0019577977974724564    0.0019683173417310304    0.001971993622018411     0.001971246325674131     0.0019675369564934432    0.001961999950539748     0.001955306654315564     0.001947784935860415     0.0019396114907056015    0.0019310884037518328    0.0019223711514481       0.0019135676170656355    0.0019047419725121673    0.0018959669188227603    0.0018872985758363854    0.0018787406927327258    0.001870326189137541     0.0018620468624616462    0.0018539244303020983
0.0036666666666666688     0.009998910120696425     0.0030580416511979667    0.0023977844903062184    0.0021371256846298373    0.0019932485830932135    0.0019003671305696786    0.0018188510563017363    0.0017501018571271735    0.0017088261628452734    0.0016822016649882551    0.001660551777808997     0.0016415932000286488    0.0016275492569953187    0.0016203552667617244    0.0016196110660779892    0.0016198896740147453    0.0016213517504041193    0.001625774952035064     0.0016345039529400468    0.0016470578343798698    0.0016621365925619483    0.00167974584091583      0.0017020315744290429    0.0017319974194377691    0.0017699106438797505    0.001812675389191161     0.0018728569571987894    0.001963901753512454     0.002030256121813667     0.0020703047162989054    0.002093492623724333     0.00210618349112887      0.002111873886775917     0.002112882825122672     0.002110673608287641     0.0021064007952648163    0.0021007697992460684    0.0020941406953648477    0.002086713155453591     0.002078807494937039     0.002070597357655362     0.0020622061398295607    0.002053711584713328     0.0020451978658856925    0.002036732358777716     0.002028324775012725     0.0020200164706832236    0.0020118029924740734    0.002003712671479208
0.0040000000000000036     0.010001608453514818     0.003309894660633882     0.0025969346078198166    0.002314932914732528     0.002159092628086997     0.0020584630954784597    0.001970206957972167     0.0018957580847822658    0.0018509554158303667    0.0018219659755572969    0.0017983561982404478    0.0017776588169326672    0.001762260373970545     0.0017542371641978572    0.001753147480674278     0.0017531204253638736    0.0017543552707670964    0.0017587470514417822    0.0017677000103124446    0.0017806651620082274    0.001796263454398973     0.0018145274730232963    0.0018376756989303914    0.0018686833920583798    0.001907678979242608     0.0019511017677466085    0.0020114107268220547    0.002098223003574959     0.002162600628009644     0.0022039490084390435    0.0022291874499762105    0.0022440496405267095    0.002251754151533423     0.0022545193245712128    0.0022538102600818395    0.002250801639989885     0.0022462329441765728    0.002240496454869281     0.002233814820201581     0.0022265265861222453    0.002218823563862624     0.0022108446625934857    0.0022026811969144884    0.0021944288129486247    0.002186166141719047     0.0021779088572927248    0.0021697067522289063    0.002161559122486501     0.0021535009126563177
0.004333333333333338      0.010000939291447323     0.003545898525505818     0.0027854969963058847    0.002483646262381231     0.0023165311752765057    0.0022085739191290187    0.0021140146810326122    0.0020342418893069024    0.0019860699076072997    0.0019547625940548726    0.0019292188296655386    0.00190680769368718      0.0018900532604482793    0.001881141696134652     0.0018795829401443663    0.001879110876590901     0.001879986328363476     0.0018841920984980236    0.0018931477134547464    0.0019062293063975325    0.0019220367836959072    0.0019406856942408843    0.001964384597784163     0.0019958117779482957    0.0020348730245921647    0.002078515928811463     0.002138263720311049     0.0022219190249540125    0.002283753606204321     0.0023246646914839024    0.002350639271781435     0.0023666890198792935    0.0023757640637789503    0.00237990303773295      0.0023804958213302636    0.0023786745989719704    0.002375173717689551     0.002370397559382409     0.0023645790399379877    0.0023580563004981497    0.002351029638410132     0.002343646659770449     0.0023360077181259213    0.00232821521536089      0.0023203552267092704    0.0023124489046705324    0.00230455201808892      0.0022966674348018625    0.002288835289111084
0.00466666666666667       0.010000270129379827     0.0037819023903777537    0.0029740593847919525    0.0026523596100299332    0.002473969722466014     0.002358684742779577     0.0022578224040930572    0.0021727256938315394    0.002121184399384232     0.002087559212552448     0.0020600814610906293    0.0020359565704416924    0.0020178461469260137    0.0020080462280714466    0.0020060183996144544    0.002005101327817928     0.002005617385959856     0.0020096371455542647    0.0020185954165970483    0.002031793450786837     0.0020478101129928414    0.002066843915458472     0.002091093496637934     0.002122940163838212     0.002162067069941721     0.002205930089876318     0.002265116713800043     0.0023456150463330664    0.002404906584398998     0.002445380374528761     0.0024720910935866593    0.0024893283992318774    0.0024997739760244777    0.002505286750894687     0.0025071813825786873    0.002506547557954056     0.002504114491202529     0.002500298663895537     0.002495343259674394     0.002489586014874054     0.00248323571295764      0.0024764486569474123    0.0024693342393373547    0.0024620016177731557    0.002454544311699494     0.0024469889520483397    0.0024393972839489336    0.0024317757471172237    0.00242416966556585
0.0050000000000000044     0.009999600967312332     0.004017906255249689     0.00316262177327802      0.002821072957678636     0.0026314082696555227    0.002508795566430136     0.0024016301271535027    0.002311209498356176     0.002256298891161165     0.0022203558310500237    0.0021909440925157197    0.0021651054471962046    0.002145639033403748     0.0021349507600082413    0.0021324538590845425    0.0021310917790449556    0.0021312484435562357    0.002135082192610506     0.00214404311973935      0.0021573575951761422    0.0021735834422897757    0.0021930021366760597    0.002217802395491705     0.0022500685497281276    0.0022892611152912777    0.002333344250941172     0.0023919697072890375    0.00246931106771212      0.002526059562593675     0.00256609605757362      0.0025935429153918837    0.0026119677785844614    0.002623783888270005     0.0026306704640564242    0.002633866943827111     0.002634420516936141     0.0026330552647155074    0.002630199768408665     0.002626107479410801     0.0026211157292499584    0.0026154417875051475    0.0026092506541243753    0.0026026607605487877    0.002595788020185421     0.0025887333966897173    0.0025815289994261473    0.0025742425498089475    0.002566884059432585     0.0025595040420206164
0.005333333333333339      0.009999767004000877     0.004237979678850876     0.003341030847934516     0.002981158634577647     0.002780921341920118     0.00265139602171991      0.002538373614063747     0.0024430251637308133    0.002384912218479067     0.0023467034354980906    0.0023153937402989625    0.002287883822842535     0.0022670803057141574    0.002255460697159101     0.002252384782770349     0.0022504724482708687    0.0022501772899077436    0.0022537133032000927    0.0022625102509733113    0.0022757201534002397    0.0022919234933899465    0.0023115224919205975    0.0023366503297733657    0.0023689387131059204    0.0024075299741530215    0.0024515623859681854    0.0025093074666690802    0.0025840674139845908    0.0026386612508349197    0.002677588970932839     0.002704912397482135     0.0027237441646793953    0.0027362845453244153    0.002744057276358886     0.0027482021827608845    0.0027496962675324526    0.002749232075283745     0.0027472319290723557    0.0027439494017246434    0.002739709653695874     0.0027347295220365663    0.00272917575355855      0.0027231706079780802    0.0027168320676578743    0.0027102642798357197    0.0027035035261681914    0.002696620585698991     0.0026896283245128       0.0026825804542302822
0.0056666666666666705     0.009999933040689421     0.004458053102452063     0.003519439922591011     0.0031412443114766583    0.0029304344141847134    0.0027939964770096835    0.002675117100973991     0.00257484082910545      0.002513525545796969     0.002473051039946157     0.0024398433880822054    0.0024106621984888656    0.0023885215780245664    0.0023759706343099607    0.002372315706456156     0.002369853117496782     0.0023691061362592514    0.0023723444137896794    0.002380977382207272     0.0023940827116243368    0.002410263544490117     0.002430042847165135     0.002455498264055027     0.002487808876483713     0.002525798833014765     0.0025697805209951986    0.0026266452260491225    0.0026988237602570612    0.002751262939076164     0.002789081884292058     0.002816281879572386     0.0028355205507743287    0.002848785202378825     0.0028574440886613476    0.002862537421694657     0.0028649720181287636    0.0028654088858519823    0.002864264089736046     0.0028617913240384855    0.0028583035781417888    0.002854017256567985     0.002849100852992725     0.0028436804554073727    0.002837876115130327     0.0028317951629817217    0.0028254780529102354    0.002818998621589034     0.0028123725895930155    0.0028056568664399477
0.006000000000000005      0.010000099077377965     0.00467812652605325      0.003697848997247506     0.0033013299883756695    0.0030799474864493088    0.0029365969322994573    0.0028118605878842354    0.002706656494480087     0.0026421388731148712    0.002599398644394224     0.0025642930358654482    0.002533440574135196     0.0025099628503349757    0.0024964805714608206    0.0024922466301419625    0.0024892337867226952    0.0024880349826107593    0.002490975524379266     0.002499444513441233     0.0025124452698484343    0.002528603595590287     0.002548563202409672     0.0025743461983366877    0.002606679039861506     0.0026440676918765087    0.002687998656022212     0.002743982985429165     0.002813580106529532     0.0028638646273174088    0.002900574797651277     0.0029276513616626376    0.002947296936869262     0.0029612858594332348    0.002970830900963809     0.00297687266062843      0.0029802477687250746    0.00298158569642022      0.0029812962503997366    0.0029796332463523276    0.0029768975025877037    0.002973304991099404     0.0029690259524268996    0.0029641903028366653    0.00295892016260278      0.0029533260461277236    0.0029474525796522794    0.0029413766574790767    0.002935116854673231     0.0029287332786496136
0.00633333333333334       0.010000057858999779     0.004882175653588343     0.0038664792064575385    0.0034531957320073927    0.003221960049921014     0.0030721072010176345    0.002941965391376128     0.0028322458232940433    0.002764700220262664     0.00271975053458244      0.002682791874416646     0.002650325744251359     0.002625546408523833     0.002611101040479402     0.002606186769281202     0.0026025495908443314    0.0026008400264830238    0.0026034029895811374    0.0026115837739217034    0.002624323342656987     0.002640293435119694     0.0026602601107739393    0.0026861710602273576    0.0027182828202267782    0.002754754921139558     0.0027983951199060508    0.0028533590219855126    0.0029207581286292365    0.002969302621915141     0.0030048176964892256    0.0030313355343897716    0.003050893328342829     0.0030651147679396956    0.003075111248100344     0.003081737839742397     0.0030857620205173406    0.003087771030425185     0.0030881558831328195    0.003087163226772728     0.0030850776086474036    0.0030821082117682926    0.0030784215430047115    0.0030741466539134857    0.0030694041013640816    0.0030643038742356097    0.0030588930902621116    0.00305324905647442      0.0030473922499383585    0.003041383967968662
0.006666666666666671      0.010000016640621591     0.005086224781123436     0.004035109415667571     0.0036050614756391154    0.0033639726133927192    0.0032076174697358113    0.0030720701948680203    0.002957835152107999     0.0028872615674104566    0.002840102424770656     0.0028012907129678437    0.002767210914367522     0.0027411299667126905    0.0027257215094979833    0.002720126908420441     0.0027158653949659675    0.0027136450703552878    0.0027158304547830084    0.0027237230344021733    0.002736201415465539     0.0027519832746491003    0.002771957019138206     0.002797995922118027     0.0028298866005920507    0.0028654421504026068    0.0029087915837898892    0.0029627350585418595    0.0030279361507289403    0.0030747406165128727    0.0031090605953271737    0.003135019707116905     0.0031544897198163948    0.003168943676446156     0.0031793915952368777    0.003186603018856363     0.0031912762723096057    0.0031939563644301492    0.003195015515865902     0.003194693207193128     0.003193257714707103     0.0031909114324371814    0.0031878171335825226    0.0031841030049903052    0.003179888040125383     0.0031752817023434953    0.003170333600871943     0.003165121455469762     0.003159667645203486     0.0031540346572877104
0.007000000000000006      0.009999975422243403     0.005290273908658529     0.004203739624877603     0.003756927219270838     0.0035059851768644242    0.0033431277384539885    0.003202174998359913     0.0030834244809219554    0.0030098229145582495    0.002960454314958872     0.0029197895515190417    0.0028840960844836844    0.002856713524901548     0.0028403419785165644    0.00283406704755968      0.0028291811990876037    0.002826450114227552     0.0028282579199848798    0.0028358622948826437    0.002848079488274091     0.002863673114178507     0.002883653927502473     0.0029098207840086965    0.002941490380957323     0.002976129379665656     0.0030191880476737277    0.0030721110950982064    0.0031351141728286442    0.003180178611110605     0.003213303494165122     0.003238703879844039     0.0032580861112899606    0.003272772584952617     0.0032836719423734117    0.0032914681979703295    0.0032967905241018712    0.0033001416984351135    0.0033018751485989844    0.003302223187613528     0.003301437820766803     0.00329971465310607      0.003297212724160334     0.0032940593560671252    0.0032903719788866847    0.003286259530451381     0.0032817741114817747    0.0032769938544651048    0.003271943040468613     0.003266685346606759