% Model:              Onedradial_solutes_zeroconc.mph
% Version:            COMSOL 5.5.0.306
% Date:               Apr 20 2020, 17:27
% Dimension:          1
% Nodes:              1741
% Expressions:        49
% Description:        Liniengraph
% R                       Height                   Height                   Height                   Height                   Height                   Height                   Height                   Height                   Height                   Height                   Height                   Height                   Height                   Height                   Height                   Height                   Height                   Height                   Height                   Height                   Height                   Height                   Height                   Height                   Height                   Height                   Height                   Height                   Height                   Height                   Height                   Height                   Height                   Height                   Height                   Height                   Height                   Height                   Height                   Height                   Height                   Height                   Height                   Height                   Height                   Height                   Height                   Height                   Height
0                         0                        0                        0                        0                        0                        0                        0                        0                        0                        0                        0                        0                        0                        0                        0                        0                        0                        0                        0                        0                        0                        0                        0                        0                        0                        0                        0                        0                        0                        0                        0                        0                        0                        0                        0                        0                        0                        0                        0                        0                        0                        0                        0                        0                        0                        0                        0                        0                        0
3.333333333333348E-4      0.0032980934337358183    3.000306556022347E-4     2.3431876925169702E-4    2.0869713356009954E-4    1.946822822410775E-4     1.856584063169001E-4     1.7771050382666887E-4    1.7102700210486384E-4    1.6710072844730922E-4    1.6464452249889049E-4    1.6268387557796996E-4    1.6099620991570385E-4    1.5981804210056448E-4    1.5934928942077614E-4    1.5955209010143427E-4    1.5989458116502653E-4    1.603927699175736E-4     1.6124126428235892E-4    1.6260057311328247E-4    1.6445831371648698E-4    1.6672282073536564E-4    1.6941968175340622E-4    1.7275843178123058E-4    1.770247631617115E-4     1.8292535734227753E-4    1.9111675992987344E-4    2.0453643643235985E-4    2.4590659968150584E-4    2.5766761495341273E-4    2.59242206338133E-4      2.5799624677736924E-4    2.553606841798684E-4     2.522435106406607E-4     2.490025914253521E-4     2.4577432811779805E-4    2.4265367569388608E-4    2.3967842907523845E-4    2.3684454914596947E-4    2.341355473952807E-4     2.3156450732663867E-4    2.2912666463952504E-4    2.2681506348550847E-4    2.2461906000748543E-4    2.2253361869305463E-4    2.2055094202134122E-4    2.1866347004891756E-4    2.1686393105990276E-4    2.1514509770075826E-4    2.1350139413775997E-4
6.666666666666661E-4      0.006596186867471637     6.000613112044694E-4     4.6863753850339405E-4    4.173942671201991E-4     3.89364564482155E-4      3.713168126338002E-4     3.5542100765333773E-4    3.420540042097277E-4     3.3420145689461845E-4    3.2928904499778097E-4    3.2536775115593993E-4    3.219924198314077E-4     3.1963608420112897E-4    3.186985788415523E-4     3.1910418020286854E-4    3.1978916233005306E-4    3.207855398351472E-4     3.2248252856471784E-4    3.2520114622656493E-4    3.2891662743297396E-4    3.3344564147073127E-4    3.3883936350681245E-4    3.4551686356246115E-4    3.54049526323423E-4      3.6585071468455506E-4    3.822335198597469E-4     4.090728728647197E-4     4.918131993630117E-4     5.153352299068255E-4     5.18484412676266E-4      5.159924935547385E-4     5.107213683597368E-4     5.044870212813214E-4     4.980051828507042E-4     4.915486562355961E-4     4.8530735138777216E-4    4.793568581504769E-4     4.7368909829193894E-4    4.682710947905614E-4     4.6312901465327735E-4    4.582533292790501E-4     4.5363012697101693E-4    4.4923812001497086E-4    4.4506723738610925E-4    4.4110188404268243E-4    4.373269400978351E-4     4.337278621198055E-4     4.3029019540151653E-4    4.2700278827551995E-4
0.0010000000000000009     0.009894280301207455     9.00091966806704E-4      7.029563077550911E-4     6.260914006802987E-4     5.840468467232325E-4     5.569752189507004E-4     5.331315114800066E-4     5.130810063145915E-4     5.013021853419277E-4     4.939335674966715E-4     4.880516267339099E-4     4.829886297471116E-4     4.794541263016935E-4     4.7804786826232846E-4    4.786562703043028E-4     4.796837434950796E-4     4.8117830975272083E-4    4.8372379284707676E-4    4.878017193398474E-4     4.93374941149461E-4      5.001684622060969E-4     5.082590452602187E-4     5.182752953436918E-4     5.310742894851345E-4     5.487760720268326E-4     5.733502797896203E-4     6.136093092970796E-4     7.377197990445176E-4     7.730028448602383E-4     7.77726619014399E-4      7.739887403321078E-4     7.660820525396053E-4     7.567305319219821E-4     7.470077742760564E-4     7.373229843533942E-4     7.279610270816583E-4     7.190352872257154E-4     7.105336474379085E-4     7.024066421858421E-4     6.94693521979916E-4      6.873799939185752E-4     6.804451904565255E-4     6.738571800224563E-4     6.676008560791639E-4     6.616528260640237E-4     6.559904101467527E-4     6.505917931797083E-4     6.454352931022748E-4     6.4050418241328E-4
0.0013333333333333357     0.009938245847400287     0.0011838000017943698    9.248880368110547E-4     8.237915418387508E-4     7.684221204888479E-4     7.32751801884434E-4      7.013405807877257E-4     6.749093857613554E-4     6.593231774199292E-4     6.495178701642035E-4     6.416607436216486E-4     6.348694560480489E-4     6.300630801314527E-4     6.280267817098696E-4     6.286143508463308E-4     6.297260781915657E-4     6.314092773878849E-4     6.344213660297013E-4     6.393865104974151E-4     6.462231860482109E-4     6.545015622884371E-4     6.642751578120989E-4     6.764464647654971E-4     6.923332822193842E-4     7.137256828701239E-4     7.422603279688551E-4     7.87466436048518E-4      9.090583304640364E-4     9.542947087485448E-4     9.657630905604397E-4     9.66098948865565E-4      9.60668515381382E-4      9.527111826197443E-4     9.436725097468487E-4     9.34190896101111E-4      9.247224162709677E-4     9.154801520256155E-4     9.065051986652725E-4     8.97781646086929E-4      8.893926823026598E-4     8.813493871240393E-4     8.736486201189076E-4     8.662703185451158E-4     8.592106657944713E-4     8.524560393789241E-4     8.459855935093293E-4     8.397837257557004E-4     8.338290469296792E-4     8.281087884186621E-4
0.001666666666666667      0.009982211393593118     0.0014675080367820355    0.0011468197658670181    0.0010214916829972029    9.527973942544632E-4     9.085283848181676E-4     8.695496500954448E-4     8.367377652081192E-4     8.173441694979306E-4     8.051021728317353E-4     7.952698605093871E-4     7.867502823489861E-4     7.806720339612119E-4     7.780056951574108E-4     7.785724313883588E-4     7.797684128880518E-4     7.816402450230488E-4     7.851189392123257E-4     7.909713016549827E-4     7.990714309469609E-4     8.088346623707772E-4     8.202912703639789E-4     8.346176341873023E-4     8.535922749536339E-4     8.786752937134151E-4     9.111703761480898E-4     9.613235627999564E-4     0.0010803968618835552    0.0011355865726368514    0.0011537995621064801    0.001158209157399022     0.0011552549782231586    0.0011486918333175064    0.0011403372452176408    0.0011310588078488277    0.001121483805460277     0.0011119250168255155    0.0011024767498926365    0.0010931566499880157    0.0010840918426254034    0.0010753187803295035    0.0010668520497812896    0.001058683457067775     0.0010508204755097787    0.0010432592526938244    0.001035980776871906     0.0010289756583316924    0.0010222228007570834    0.0010157133944240441
0.0020000000000000018     0.01002617693978595      0.0017512160717697014    0.0013687514949229818    0.0012191918241556549    0.0011371726680200786    0.0010843049677519013    0.001037758719403164     9.985661446548831E-4     9.75365161575932E-4      9.606864754992672E-4     9.488789773971257E-4     9.386311086499235E-4     9.312809877909711E-4     9.27984608604952E-4      9.285305119303868E-4     9.298107475845379E-4     9.318712126582129E-4     9.358165123949502E-4     9.425560928125504E-4     9.519196758457108E-4     9.631677624531173E-4     9.76307382915859E-4      9.927888036091077E-4     0.0010148512676878836    0.0010436249045567064    0.0010800804243273246    0.0011351806895513949    0.0012517353933030738    0.0013168784365251579    0.0013418360336525208    0.0013503193659324792    0.0013498414410649353    0.0013446724840152685    0.0013370019806884332    0.0013279267195965444    0.0013182451946495864    0.0013083698816254157    0.0012984483011200007    0.0012885316538891027    0.0012787910029481472    0.0012692881735349678    0.0012600554794436718    0.0012510965955904345    0.001242430285225086     0.0012340624660087248    0.0012259759602344824    0.0012181675909076846    0.0012106165545844878    0.0012033180004294261
0.0023333333333333366     0.010015289111543847     0.0020189225919551813    0.0015789957483749724    0.0014066316242452445    0.001311968609715283     0.0012509283787520184    0.0011972188972558086    0.001151973897042326     0.0011250993266756731    0.0011080153316162232    0.001094233630580126     0.0010822413945069343    0.0010735629995425038    0.0010695202296999787    0.0010698664202486389    0.001071016555494957     0.001073029044998163     0.0010771545926705757    0.0010844080079400306    0.0010945608436049993    0.001106739464599315     0.0011209324475126156    0.001138773644212618     0.0011627760031787606    0.0011938745941022916    0.0012319944935763336    0.0012887035990166555    0.0013995766799970186    0.0014664413274945935    0.0014955627331215146    0.0015075805676908562    0.0015100446914974644    0.0015071527751129663    0.001501204595884103     0.0014934179146469453    0.0014846964983708409    0.0014755277575340228    0.0014661085928600402    0.0014565243779223814    0.00144698377283115      0.0014375737641105378    0.0014283466844071673    0.0014193218505090936    0.001410532180744895     0.0014019965749788533    0.0013937028436454568    0.001385657029809361     0.0013778412805468948    0.0013702573966680141
0.002666666666666668      0.010004401283301741     0.0022866291121406614    0.0017892400018269627    0.001594071424334834     0.0014867645514104872    0.0014175517897521352    0.001356679075108453     0.0013053816494297686    0.001274833491775414     0.0012553441877331793    0.0012395882837631263    0.0012258516803639451    0.0012158450112940364    0.0012110558507950051    0.0012112023285668907    0.0012122223634053759    0.0012141868773381129    0.0012184926729462012    0.0012262599230675108    0.0012372020113642877    0.0012503111667455126    0.0012655575121093719    0.001284758484816128     0.0013107007386696378    0.0013441242836478768    0.0013839085628253424    0.0014422265084819159    0.001547417966690963     0.0016160042184640286    0.0016492894325905083    0.0016648417694492333    0.0016702479419299936    0.001669633066210664     0.0016654072110797728    0.0016589091096973461    0.0016511478020920954    0.0016426856334426298    0.0016337688846000795    0.0016245171019556596    0.0016151765427141525    0.0016058593546861078    0.0015966378893706623    0.0015875471054277524    0.0015786340762647037    0.0015699306839489816    0.001561429727056431     0.001553146468711037     0.0015450660065093019    0.0015371967929066021
0.0030000000000000027     0.009993513455059637     0.002554335632326141     0.001999484255278953     0.0017815112244244239    0.0016615604931056916    0.001584175200752252     0.0015161392529610975    0.0014587894018172115    0.001424567656875155     0.0014026730438501352    0.0013849429369461265    0.0013694619662209559    0.001358127023045569     0.0013525914718900318    0.0013525382368851427    0.001353428171315795     0.001355344709678063     0.0013598307532218267    0.001368111838194991     0.0013798431791235762    0.0013938828688917105    0.0014101825767061284    0.001430743325419638     0.0014586254741605147    0.001494373973193462     0.0015358226320743512    0.0015957494179471765    0.0016952592533849078    0.001765567109433464     0.0018030161320595022    0.0018221029712076104    0.0018304511923625227    0.0018321133573083617    0.0018296098262754427    0.001824400304747747     0.0018175991058133499    0.0018098435093512368    0.001801429176340119     0.0017925098259889381    0.0017833693125971551    0.0017741449452616778    0.0017649290943341576    0.0017557723603464112    0.0017467359717845126    0.00173786479291911      0.0017291566104674053    0.0017206359076127132    0.001712290732471709     0.0017041361891451902
0.0033333333333333375     0.009996211787878032     0.0028061886417620743    0.0021986343727925465    0.001959318454527116     0.0018274045380994768    0.001742271165661049     0.001667495154631546     0.0016044456294723156    0.0015666969098602564    0.0015424373544191898    0.0015227473573775862    0.0015055275831249496    0.0014928381400207212    0.0014864733693261433    0.0014860746514816236    0.0014866589226651627    0.0014883482300409034    0.0014928028526286804    0.0015013078955685647    0.0015134505067523041    0.00152800973072415      0.0015449642088061258    0.0015663874499297153    0.0015953114468329928    0.001632142308554239     0.0016742490106290123    0.0017343031875701165    0.001829580503446679     0.0018979116156255117    0.001936660424195876     0.0019577977974639827    0.0019683173417537276    0.0019719936220620343    0.001971246325722158     0.001967536956541929     0.0019619999505402137    0.001955306654283286     0.0019477849358446146    0.0019396114907373765    0.0019310884037835017    0.0019223711514703248    0.0019135676171005097    0.0019047419725495673    0.001895966918849431     0.0018872985758628252    0.0018787406927488334    0.0018703261891607449    0.0018620468624860975    0.0018539244303244883
0.0036666666666666688     0.009998910120696425     0.003058041651198007     0.00239778449030614      0.0021371256846298074    0.0019932485830932616    0.001900367130569846     0.0018188510563019946    0.0017501018571274194    0.0017088261628453575    0.0016822016649882443    0.0016605517778090456    0.001641593200028943     0.001627549256995873     0.0016203552667622548    0.0016196110660781043    0.0016198896740145302    0.0016213517504037437    0.001625774952035534     0.0016345039529421384    0.0016470578343810319    0.0016621365925565891    0.001679745840906123     0.0017020315744397925    0.0017319974195054706    0.001769910643915016     0.0018126753891836728    0.0018728569571930566    0.00196390175350845      0.0020302561218175593    0.0020703047163322494    0.0020934926237203546    0.0021061834911449326    0.0021118738868157066    0.002112882825168873     0.002110673608336111     0.002106400795267077     0.002100769799215335     0.00209414069534911      0.002086713155485815     0.002078807494969848     0.0020705973576789715    0.0020622061398668616    0.002053711584752723     0.0020451978659143492    0.0020367323588065403    0.002028324775030261     0.0020200164707087766    0.002011802992500486     0.0020037126715037865
0.0040000000000000036     0.010001608453514818     0.0033098946606339398    0.0025969346078197333    0.0023149329147324994    0.002159092628087047     0.002058463095478643     0.001970206957972443     0.0018957580847825234    0.0018509554158304589    0.0018219659755572988    0.0017983561982405053    0.0017776588169329368    0.001762260373971025     0.0017542371641983663    0.001753147480674585     0.0017531204253638977    0.001754355270766584     0.0017587470514423874    0.0017677000103157121    0.0017806651620097596    0.0017962634543890283    0.0018145274730061202    0.0018376756989498698    0.0018686833921779486    0.0019076789792757927    0.0019511017677383336    0.0020114107268159966    0.002098223003570221     0.0021626006280096068    0.002203949008468623     0.002229187449976727     0.0022440496405361373    0.002251754151569379     0.002254519324615588     0.0022538102601302934    0.002250801639993941     0.0022462329441473843    0.0022404964548536055    0.002233814820234253     0.0022265265861561943    0.0022188235638876184    0.0022108446626332135    0.002202681196955879     0.0021944288129792677    0.0021861661417502554    0.002177908857311689     0.002169706752256808     0.0021615591225148745    0.0021535009126830845
0.004333333333333338      0.010000939291447323     0.0035458985255058585    0.002785496996305792     0.002483646262381203     0.0023165311752765577    0.0022085739191292177    0.002114014681032931     0.0020342418893071978    0.0019860699076073855    0.0019547625940548453    0.001929218829665602     0.001906807693687531     0.0018900532604489       0.0018811416961352718    0.0018795829401445816    0.0018791108765905881    0.0018799863283631081    0.0018841920984985674    0.0018931477134565531    0.0019062293063981054    0.001922036783690968     0.0019406856942337893    0.0019643845977972783    0.001995811778010975     0.0020348730246009424    0.002078515928802642     0.002138263720304898     0.0022219190249486284    0.0022837536062045045    0.0023246646915089054    0.0023506392717837286    0.0023666890198856066    0.0023757640638107985    0.002379903037773808     0.0023804958213768097    0.002378674598978259     0.0023751737176636385    0.002370397559367343     0.0023645790399695185    0.0023580563005318636    0.0023510296384356543    0.0023436466598110413    0.0023360077181676527    0.0023282152153924437    0.0023203552267417487    0.0023124489046903824    0.002304552018118423     0.002296667434831755     0.0022888352891395195
0.00466666666666667       0.010000270129379827     0.003781902390377777     0.00297405938479185      0.0026523596100299063    0.002473969722466068     0.002358684742779792     0.0022578224040934185    0.0021727256938318725    0.002121184399384312     0.002087559212552391     0.0020600814610906987    0.002035956570442125     0.002017846146926775     0.0020080462280721773    0.002006018399614578     0.002005101327817278     0.002005617385959632     0.0020096371455547474    0.002018595416597394     0.0020317934507864508    0.0020478101129929073    0.0020668439154614584    0.0020910934966446863    0.002122940163844001     0.0021620670699260915    0.00220593008986695      0.002265116713793799     0.002345615046327035     0.0024049065843994026    0.0024453803745491873    0.0024720910935907307    0.0024893283992350754    0.0024997739760522185    0.002505286750932028     0.002507181382623326     0.002506547557962577     0.0025041144911798923    0.0025002986638810805    0.002495343259704784     0.0024895860149075325    0.00248323571298369      0.002476448656988869     0.0024693342393794265    0.0024620016178056193    0.0024545443117332416    0.0024469889520690753    0.0024393972839800377    0.002431775747148635     0.002424169665595954
0.0050000000000000044     0.00999960096731233      0.004017906255249696     0.0031626217732779083    0.00282107295767861      0.002631408269655579     0.0025087955664303664    0.002401630127153906     0.002311209498356547     0.002256298891161239     0.0022203558310499374    0.0021909440925157956    0.0021651054471967194    0.0021456390334046497    0.0021349507600090826    0.002132453859084574     0.0021310917790439685    0.0021312484435561563    0.002135082192610927     0.002144043119738235     0.0021573575951747965    0.0021735834422948468    0.002193002136689128     0.002217802395492095     0.0022500685496770275    0.002289261115251241     0.0023333442509312578    0.0023919697072827       0.002469311067705442     0.0025260595625943003    0.002566096057589469     0.0025935429153977323    0.0026119677785845447    0.002623783888293638     0.0026306704640902483    0.0026338669438698424    0.002634420516946895     0.0026330552646961465    0.002630199768394818     0.002626107479440049     0.002621115729283202     0.002615441787531726     0.002609250654166697     0.0026026607605912004    0.0025957880202187953    0.002588733396724735     0.0025815289994477685    0.0025742425498416527    0.0025668840594655147    0.0025595040420523887
0.005333333333333339      0.009999767004000876     0.004237979678850872     0.003341030847934393     0.0029811586345776225    0.0027809213419201784    0.002651396021720153     0.002538373614064166     0.0024430251637311976    0.002384912218479147     0.0023467034354980034    0.0023153937402990428    0.002287883822843075     0.0022670803057151094    0.0022554606971599807    0.0022523847827703417    0.002250472448269804     0.0022501772899077136    0.002253713303200489     0.002262510250971858     0.0022757201533988186    0.002291923493396383     0.0023115224919356167    0.002336650329770848     0.0023689387130414563    0.0024075299740998505    0.002451562385958314     0.002509307466662899     0.002584067413978145     0.0026386612508363925    0.0026775889709464568    0.0027049123974871576    0.0027237441646800944    0.002736284545345629     0.0027440572763895664    0.0027482021828011006    0.0027496962675447566    0.002749232075267881     0.002747231929059739     0.0027439494017521063    0.0027397096537279744    0.002734729522062925     0.002729175753600368     0.002723170608019626     0.0027168320676912217    0.002710264279870956     0.0027035035261901426    0.002696620585732432     0.0026896283245466178    0.002682580454263029
0.0056666666666666705     0.00999993304068942      0.004458053102452046     0.003519439922590877     0.0031412443114766345    0.002930434414184777     0.002793996477009939     0.0026751171009744257    0.002574840829105848     0.0025135255457970555    0.0024730510399460694    0.0024398433880822895    0.0024106621984894302    0.002388521578025569     0.0023759706343108784    0.002372315706456109     0.002369853117495639     0.0023691061362592705    0.0023723444137900506    0.0023809773822054806    0.00239408271162284      0.0024102635444979196    0.002430042847182105     0.0024554982640496003    0.002487808876405885     0.0025257988329484594    0.0025697805209853705    0.0026266452260430974    0.0026988237602508475    0.0027512629390784847    0.0027890818843034444    0.0028162818795765825    0.0028355205507756436    0.0028487852023976203    0.0028574440886888846    0.0028625374217323583    0.002864972018142618     0.0028654088858396146    0.0028642640897246596    0.002861791324064163     0.002858303578172746     0.002854017256594124     0.002849100853034038     0.0028436804554480516    0.002837876115163648     0.002831795163017176     0.002825478052932516     0.002818998621623211     0.0028123725896277204    0.0028056568664736685
0.006000000000000005      0.010000099077377964     0.004678126526053221     0.003697848997247361     0.003301329988375647     0.0030799474864493764    0.0029365969322997254    0.0028118605878846856    0.002706656494480498     0.0026421388731149636    0.0025993986443941354    0.0025642930358655367    0.002533440574135786     0.0025099628503360287    0.002496480571461776     0.0024922466301418767    0.0024892337867214744    0.0024880349826108274    0.0024909755243796125    0.0024994445134391033    0.002512445269846862     0.002528603595599456     0.002548563202428594     0.0025743461983283532    0.002606679039770314     0.002644067691797069     0.0026879986560124267    0.0027439829854232958    0.0028135801065235504    0.002863864627320577     0.002900574797660432     0.0029276513616660078    0.002947296936871193     0.0029612858594496114    0.0029708309009882027    0.0029768726606636165    0.0029802477687404794    0.0029815856964113484    0.0029812962503895806    0.00297963324637622      0.0029768975026175184    0.002973304991125323     0.0029690259524677086    0.002964190302876477     0.0029589201626360746    0.0029533260461633965    0.00294745257967489      0.0029413766575139898    0.0029351168547088234    0.0029287332786843085
0.00633333333333334       0.010000057858999777     0.004882175653588295     0.003866479206457393     0.0034531957320073684    0.003221960049921094     0.003072107201017894     0.0029419653913765565    0.0028322458232944536    0.002764700220262772     0.0027197505345823727    0.0026827918744167364    0.0026503257442519095    0.002625546408524819     0.0026111010404803424    0.0026061867692812684    0.002602549590843362     0.0026008400264830368    0.0026034029895815247    0.0026115837739203677    0.0026243233426559475    0.0026402934351263045    0.0026602601107878023    0.002686171060222583     0.0027182828201646153    0.0027547549210729092    0.0027983951198969847    0.002853359021980004     0.0029207581286236125    0.0029693026219186048    0.003004817696498157     0.0030313355343917683    0.0030508933283465126    0.003065114767955352     0.003075111248122844     0.00308173783977532      0.0030857620205331717    0.0030877710304188814    0.0030881558831242634    0.003087163226795028     0.003085077608675723     0.0030821082117934535    0.003078421543044084     0.0030741466539518244    0.003069404101396699     0.003064303874270722     0.0030588930902846223    0.003053249056509305     0.0030473922499741775    0.003041383968003607
0.006666666666666671      0.010000016640621587     0.0050862247811233685    0.004035109415667425     0.003605061475639089     0.003363972613392811     0.003207617469736062     0.003072070194868427     0.0029578351521084086    0.0028872615674105802    0.00284010242477061      0.0028012907129679357    0.0027672109143680327    0.0027411299667136086    0.0027257215094989083    0.0027201269084206597    0.0027158653949652493    0.0027136450703552453    0.0027158304547834364    0.0027237230344016317    0.0027362014154650323    0.002751983274653153     0.00277195701914701      0.002797995922116813     0.0028298866005589157    0.0028654421503487492    0.002908791583781542     0.0029627350585367117    0.003027936150723674     0.0030747406165166323    0.003109060595335881     0.003135019707117528     0.003154489719821832     0.0031689436764610916    0.003179391595257485     0.0031866030188870227    0.003191276272325863     0.003193956364426414     0.0031950155158589457    0.0031946932072138357    0.003193257714733927     0.0031909114324615837    0.0031878171336204592    0.0031841030050271707    0.003179888040157323     0.003175281702378047     0.0031703336008943542    0.00316512145550462      0.003159667645239531     0.0031540346573229044
0.007000000000000006      0.0099999754222434       0.005290273908658442     0.004203739624877457     0.00375692721927081      0.0035059851768645283    0.0033431277384542305    0.0032021749983602976    0.003083424480922364     0.0030098229145583888    0.002960454314958847     0.0029197895515191354    0.0028840960844841563    0.0028567135249023988    0.0028403419785174746    0.002834067047560051     0.0028291811990871366    0.002826450114227454     0.002828257919985348     0.002835862294882896     0.002848079488274117     0.0028636731141800016    0.0028836539275062184    0.002909820784011043     0.0029414903809532166    0.0029761293796245897    0.0030191880476661       0.00307211109509342      0.003135114172823736     0.00318017861111466      0.0032133034941736055    0.003238703879843288     0.003258086111297151     0.0032727725849668317    0.003283671942392126     0.003291468197998726     0.003296790524118555     0.003300141698433947     0.0033018751485936284    0.0033022231876326433    0.0033014378207921317    0.003299714653129714     0.0032972127241968343    0.003294059356102517     0.003290371978917947     0.0032862595304853724    0.0032817741115040862    0.003276993854499935     0.0032719430405048853    0.0032666853466422024