% Model:              Onedradial_solutes.mph
% Version:            COMSOL 5.5.0.306
% Date:               Apr 5 2020, 09:58
% Dimension:          1
% Nodes:              581
% Expressions:        241
% Description:        Liniengraph
% R                       Height                   Height                   Height                   Height                   Height                   Height                   Height                   Height                   Height                   Height                   Height                   Height                   Height                   Height                   Height                   Height                   Height                   Height                   Height                   Height                   Height                   Height                   Height                   Height                   Height                   Height                   Height                   Height                   Height                   Height                   Height                   Height                   Height                   Height                   Height                   Height                   Height                   Height                   Height                   Height                   Height                   Height                   Height                   Height                   Height                   Height                   Height                   Height                   Height                   Height                   Height                   Height                   Height                   Height                   Height                   Height                   Height                   Height                   Height                   Height                   Height                   Height                   Height                   Height                   Height                   Height                   Height                   Height                   Height                   Height                   Height                   Height                   Height                   Height                   Height                   Height                   Height                   Height                   Height                   Height                   Height                   Height                   Height                   Height                   Height                   Height                   Height                   Height                   Height                   Height                   Height                   Height                   Height                   Height                   Height                   Height                   Height                   Height                   Height                   Height                   Height                   Height                   Height                   Height                   Height                   Height                   Height                   Height                   Height                   Height                   Height                   Height                   Height                   Height                   Height                   Height                   Height                   Height                   Height                   Height                   Height                   Height                   Height                   Height                   Height                   Height                   Height                   Height                   Height                   Height                   Height                   Height                   Height                   Height                   Height                   Height                   Height                   Height                   Height                   Height                   Height                   Height                   Height                   Height                   Height                   Height                   Height                   Height                   Height                   Height                   Height                   Height                   Height                   Height                   Height                   Height                   Height                   Height                   Height                   Height                   Height                   Height                   Height                   Height                   Height                   Height                   Height                   Height                   Height                   Height                   Height                   Height                   Height                   Height                   Height                   Height                   Height                   Height                   Height                   Height                   Height                   Height                   Height                   Height                   Height                   Height                   Height                   Height                   Height                   Height                   Height                   Height                   Height                   Height                   Height                   Height                   Height                   Height                   Height                   Height                   Height                   Height                   Height                   Height                   Height                   Height                   Height                   Height                   Height                   Height                   Height                   Height                   Height                   Height                   Height                   Height                   Height                   Height                   Height                   Height                   Height                   Height                   Height                   Height                   Height                   Height                   Height                   Height                   Height                   Height                   Height                   Height                   Height                   Height                   Height                   Height                   Height                   Height                   Height                   Height                   Height
0                         0.009983674865971183     0.001410275084686601     6.592632090846196E-4     5.178950064046753E-4     6.33235399749518E-4      6.642170845625619E-4     6.563603273683567E-4     6.012693384973502E-4     5.466497776091179E-4     5.042543971584723E-4     4.7082133490552005E-4    4.4635059085026073E-4    4.238274616234432E-4     4.048924724884304E-4     3.9082645427444254E-4    3.794305857773022E-4     3.669893715884183E-4     3.562820021371816E-4     3.4730847742359214E-4    3.3806726322002656E-4    3.2945743082223576E-4    3.215957492707494E-4     3.143607683502049E-4     3.075913181384884E-4     3.013172922872871E-4     2.9548742430680766E-4    2.90050447707257E-4      2.8495509599884194E-4    2.801501026917692E-4     2.755256411972261E-4     2.710155515016645E-4     2.66590631206161E-4      2.621926169402727E-4     2.577632453335567E-4     2.5324425301556983E-4    2.4857737661586923E-4    2.444305589913749E-4     2.406388460246563E-4     2.3698678422404514E-4    2.3346978566037897E-4    2.3008326240449555E-4    2.2682262652723225E-4    2.236832900994269E-4     2.2066066519191687E-4    2.1775016387553983E-4    2.1494719822113346E-4    2.1224718029953527E-4    2.0964552218158294E-4    2.0713763593811391E-4    2.0471893363996596E-4    2.022191798966765E-4     1.997569461040284E-4     1.9732735664232566E-4    1.9492264163715835E-4    1.9253503121411658E-4    1.901567554987903E-4     1.8778004461676964E-4    1.8539712869364465E-4    1.8300023785500533E-4    1.8058160222644175E-4    1.7813345193354397E-4    1.7564801710190207E-4    1.73117527857106E-4      1.7064392719499247E-4    1.685518940618805E-4     1.6650420405040875E-4    1.6450061076432948E-4    1.625408678073952E-4     1.6062472878335829E-4    1.5875194729597116E-4    1.569222769489863E-4     1.5513547134615602E-4    1.5339128409123278E-4    1.51689468787969E-4      1.5002977904011707E-4    1.4841196845142941E-4    1.4683579062565847E-4    1.452382704150299E-4     1.435900328881665E-4     1.419520940416152E-4     1.4032219804700215E-4    1.3869808907595376E-4    1.3707751130009614E-4    1.3545820889105563E-4    1.3383792602045846E-4    1.3221440685993094E-4    1.3058539558109922E-4    1.2894863635558965E-4    1.2730187335502845E-4    1.2564285075104188E-4    1.2396931271525615E-4    1.2240142812946955E-4    1.2089460452093243E-4    1.1940538482386635E-4    1.1793402681198454E-4    1.1648078825900017E-4    1.1504592693862641E-4    1.1362970062457644E-4    1.1223236709056344E-4    1.1085418411030062E-4    1.0949540945750116E-4    1.0815630090587819E-4    1.0683711622914491E-4    1.0554951439998264E-4    1.0431030668181662E-4    1.0310037220850592E-4    1.0192057380964445E-4    1.0077177431482617E-4    9.965483655364502E-5     9.857062335569492E-5     9.751999755056983E-5     9.650382196786367E-5     9.552295943717039E-5     9.457827278808391E-5     9.365332970491489E-5     9.268030586365618E-5     9.17207176491675E-5      9.077344109742559E-5     8.98373522444071E-5      8.891132712608878E-5     8.799424177844732E-5     8.708497223745947E-5     8.618239453910185E-5     8.528538471935126E-5     8.439281881418436E-5     8.350423125743767E-5     8.263150017004876E-5     8.176349931964682E-5     8.089940473643255E-5     8.003839245060672E-5     7.917963849237008E-5     7.83223188919234E-5      7.746560967946742E-5     7.660868688520287E-5     7.575072653933055E-5     7.489090467205116E-5     7.40283973135655E-5      7.320363943279053E-5     7.238979813654331E-5     7.158348656162008E-5     7.078485273293277E-5     6.999404467539333E-5     6.921121041391368E-5     6.843649797340574E-5     6.767005537878144E-5     6.691203065495275E-5     6.616257182683157E-5     6.541822058427168E-5     6.468117102917864E-5     6.395188140936022E-5     6.323039797551779E-5     6.251676697835272E-5     6.181103466856635E-5     6.11132472968601E-5      6.0423451113935284E-5    5.974169237049335E-5     5.906801731723561E-5     5.839700602121503E-5     5.773154471488492E-5     5.707230556539688E-5     5.641916650015715E-5     5.577200544657194E-5     5.5130700332047483E-5    5.4495129083990024E-5    5.3865169629805774E-5    5.3240699896900966E-5    5.262262713444239E-5     5.2010257469112957E-5    5.1403404608207706E-5    5.080198155544535E-5     5.0205901314544536E-5    4.961507688922395E-5     4.9029421283202274E-5    4.844884750019818E-5     4.787326854393033E-5     4.730441973176198E-5     4.67411058758558E-5      4.6183204517979844E-5    4.563069093318878E-5     4.5083540396537274E-5    4.454172818307998E-5     4.400522956787157E-5     4.347401982596671E-5     4.294592272535991E-5     4.242196812698995E-5     4.19022883186482E-5      4.1386766781397816E-5    4.087528699630196E-5     4.0367732444423826E-5    3.986398660682656E-5     3.936511984439498E-5     3.887115777465267E-5     3.838148731626012E-5     3.78960829533725E-5      3.7414919170144963E-5    3.6937970450732654E-5    3.646521127929076E-5     3.5996747726589906E-5    3.553275082418879E-5     3.507303033061607E-5     3.461757968017914E-5     3.416639230718536E-5     3.37194616459421E-5      3.327678113075676E-5     3.283812493315206E-5     3.240149398674737E-5     3.196817782960885E-5     3.153806046327853E-5     3.1111025889298444E-5    3.068697305831291E-5     3.0266474513163687E-5    2.984906923452019E-5     2.9434693667606824E-5    2.9023284257647965E-5    2.8614777449867987E-5    2.8209531628546602E-5    2.780732256275287E-5     2.7408107274547243E-5    2.7011862316959062E-5    2.6618564243017657E-5    2.622804867559886E-5     2.584032608114672E-5     2.5455375614701763E-5    2.5073158789405712E-5    2.469363711840033E-5     2.431634581984307E-5     2.394127640489998E-5     2.3568432882808604E-5    2.3197725177097244E-5    2.28290632112942E-5      2.2460882448804145E-5    2.2092594311160117E-5    2.1724124051647996E-5    2.1354877098655918E-5    2.0989107194606187E-5    2.0625643763556494E-5    2.026377328245765E-5     1.9901893153297152E-5    1.9540338250023988E-5    1.917955896126343E-5     1.8819796214709728E-5
0.0010000000000000009     0.009987724338098254     0.0029974219164191243    0.002086622853730578     0.0017827254821732817    0.0017498098662278093    0.0016842845758183096    0.0016037459101143198    0.001506775006674281     0.00141220639877612      0.001334520727053439     0.0012692130013933628    0.001216283221795891     0.0011687044649568844    0.0011281201140099313    0.0010958132310502817    0.0010686713890221255    0.0010414353115397934    0.0010180389371469254    9.984822658435208E-4     9.786200827335222E-4     9.603143813198781E-4     9.438069924738885E-4     9.287590452573778E-4     9.147208426274114E-4     9.017757939856312E-4     8.897808553412028E-4     8.785929827032914E-4     8.680691320810632E-4     8.58066259483683E-4      8.485603681911175E-4     8.394386913702783E-4     8.305133307721457E-4     8.216554664177879E-4     8.127362783282732E-4     8.036269465246696E-4     7.941986510280454E-4     7.859594960452144E-4     7.785401725218847E-4     7.714575419653214E-4     7.647037729322209E-4     7.582710339792796E-4     7.52151493663194E-4      7.463373205406605E-4     7.408206831683756E-4     7.355937501030356E-4     7.306486899013371E-4     7.259776711199764E-4     7.215728623156502E-4     7.174264320450546E-4     7.135305488648864E-4     7.092570806431508E-4     7.050593911367764E-4     7.009285715866066E-4     6.968448751066687E-4     6.927885548109899E-4     6.887398638135971E-4     6.846790552285177E-4     6.80586382169779E-4      6.764420977514082E-4     6.72226455087432E-4      6.67919707291878E-4      6.635021074787732E-4     6.589539087621451E-4     6.544851178648225E-4     6.507721807552598E-4     6.471054281371821E-4     6.434808683067994E-4     6.398945095603217E-4     6.363423601939592E-4     6.328204285039218E-4     6.293247227864197E-4     6.258512513376631E-4     6.223960224538621E-4     6.189550444312265E-4     6.155243255659669E-4     6.120998741542929E-4     6.086776984924147E-4     6.053640524882032E-4     6.022061377598134E-4     5.990922941133135E-4     5.960220614164562E-4     5.929949795369954E-4     5.900105883426841E-4     5.870684277012758E-4     5.84168037480524E-4      5.813089575481822E-4     5.784907277720035E-4     5.757128880197414E-4     5.729749781591493E-4     5.70276538057981E-4      5.676171075839891E-4     5.651041326929106E-4     5.626998374061594E-4     5.6036744650165E-4       5.581087153554885E-4     5.559253993437803E-4     5.53819253842632E-4      5.51792034228149E-4      5.498454958764377E-4     5.479813941636038E-4     5.462014844657533E-4     5.445075221589923E-4     5.429012626194266E-4     5.413340582296046E-4     5.397344838661381E-4     5.381899649704005E-4     5.36699582057043E-4      5.352624156407166E-4     5.338775462360723E-4     5.32544054357761E-4      5.31261020520434E-4      5.300275252387421E-4     5.288426490273364E-4     5.277054724008678E-4     5.265954169652399E-4     5.254334884654126E-4     5.242877106188055E-4     5.23154905607238E-4      5.220318956125296E-4     5.209155028164997E-4     5.198025494009676E-4     5.186898575477527E-4     5.175742494386745E-4     5.164525472555522E-4     5.15321573180205E-4      5.141831914185996E-4     5.131337943825538E-4     5.120936066802768E-4     5.110617478554322E-4     5.100373374516842E-4     5.090194950126962E-4     5.08007340082132E-4      5.069999922036554E-4     5.059965709209303E-4     5.049961957776201E-4     5.039979863173886E-4     5.030010620838999E-4     5.020630236225822E-4     5.011461250621947E-4     5.002458532651355E-4     4.993627054940837E-4     4.984971790117183E-4     4.976497710807183E-4     4.968209789637627E-4     4.960112999235309E-4     4.952212312227014E-4     4.944512701239534E-4     4.936882886713035E-4     4.929405144813741E-4     4.922096168806493E-4     4.914957086151586E-4     4.907989024309317E-4     4.901193110739981E-4     4.894570472903878E-4     4.8881222382613E-4       4.881849534272548E-4     4.875753488397916E-4     4.869738040636577E-4     4.8638548126571916E-4    4.858116060567499E-4     4.852519919079153E-4     4.8470645229038045E-4    4.8417480067531053E-4    4.836568505338709E-4     4.831524153372267E-4     4.8266130855654333E-4    4.821842111547022E-4     4.817204547006977E-4     4.8126979854227467E-4    4.808320857122103E-4     4.804071592432819E-4     4.7999486216826655E-4    4.795950375199414E-4     4.7920752833108385E-4    4.7883217763447093E-4    4.7847210754805035E-4    4.7812516701620033E-4    4.777911352611922E-4     4.774699673673234E-4     4.7716161841889127E-4    4.768660435001934E-4     4.765831976955274E-4     4.763130360891908E-4     4.7605453324853957E-4    4.75808124869506E-4      4.7557383759257795E-4    4.753515846683236E-4     4.7514127934731134E-4    4.749428348801095E-4     4.747561645172861E-4     4.745823746181116E-4     4.744215213155624E-4     4.742730186917887E-4     4.741368714780452E-4     4.740130844055868E-4     4.7390166220566816E-4    4.738026096095443E-4     4.73716106952521E-4      4.736424212609207E-4     4.7358133743750615E-4    4.735328855027571E-4     4.734970954771528E-4     4.73473997381173E-4      4.7346362123529723E-4    4.7346588271744293E-4    4.734797727860619E-4     4.735059973621278E-4     4.7354452939842067E-4    4.735953418477202E-4     4.7365842615765E-4       4.7373460713573184E-4    4.738234308792084E-4     4.7392493522353167E-4    4.7403915800415364E-4    4.741661370565268E-4     4.743067160812114E-4     4.744606260368594E-4     4.746279440588023E-4     4.7480878458474175E-4    4.750032620523787E-4     4.7521136614764477E-4    4.7543324132849184E-4    4.756690043359283E-4     4.7591875629430456E-4    4.7618259832797084E-4    4.764605290487397E-4     4.7675265679468346E-4    4.7705909290932666E-4    4.773799261110974E-4     4.777152451184246E-4     4.780643927964489E-4     4.7842720569716467E-4    4.7880378029353343E-4    4.791939501059268E-4     4.796024651694129E-4     4.800285054108293E-4     4.804719022596814E-4     4.809320493304949E-4     4.814096378137083E-4     4.819048799319844E-4     4.824180037139913E-4
0.0019999999999999983     0.009991773810225327     0.004584568748151647     0.003513982498376537     0.003047555957941888     0.0028663843327061005    0.0027043520670740574    0.002551131492860283     0.002412280674851212     0.002277763019943122     0.0021647870569484057    0.0020676046678812054    0.0019862158527415214    0.0019135814682903255    0.001851347755531432     0.001800800007826121     0.0017579121922669486    0.0017158812514911684    0.0016797958721566691    0.0016496560542634494    0.0016191729022470179    0.0015911713318175205    0.0015660182356770278    0.0015431573221645508    0.0015218503671163342    0.0015022342956839752    0.0014840742863755979    0.001467135517699326     0.0014511831681632845    0.0014359824162755966    0.0014215950951850089    0.001407861831238892     0.0013944360303381306    0.0013811183158953032    0.0013677093113229897    0.0013540096400337695    0.0013398199254402215    0.0013274884330990537    0.0013164414990191131    0.0013059282997065975    0.001295937760204063     0.0012864588055540636    0.0012774803607991559    0.0012689913509818943    0.0012609807011448343    0.0012534373363305312    0.0012463501815815408    0.0012397081619404174    0.0012335002024497174    0.0012277152281519952    0.0012223421640898066    0.001216294981389625     0.0012103618361695243    0.0012045297865308875    0.001198767108576179     0.0011930420784078632    0.0011873229721284038    0.001181578065840266     0.0011757756356459133    0.001169883957647811     0.0011638713079484223    0.0011577059626502121    0.0011513561978556445    0.001144790289667184     0.0011383263085346525    0.0011329924674486392    0.0011277066522239554    0.001122461125849269     0.0011172481513132481    0.00111205999160456      0.0011068889097118726    0.0011017271686238532    0.0010965670313291703    0.0010914007608164914    0.001086220620074484     0.0010810188720918165    0.0010757877798571562    0.0010705196063591708    0.0010654898345613764    0.0010608222426314604    0.001056232494185012     0.0010517219247859102    0.0010472918699980368    0.001042943665385272     0.001038678646511496     0.0010344981489405895    0.0010304035082364335    0.0010263960599629079    0.0010224771396838933    0.0010186480829632702    0.00101491022536492      0.001011264902452722     0.0010078068372563515    0.0010045050702913866    0.0010013295081794337    9.982834038989926E-4     9.953700104285603E-4     9.925925807466375E-4     9.899543678317216E-4     9.874586246623118E-4     9.85108604216907E-4      9.829075594740054E-4     9.808587434121064E-4     9.78965409009708E-4      9.771186020592266E-4     9.751586610504594E-4     9.732795577322951E-4     9.714785903044416E-4     9.697530569666071E-4     9.681002559184996E-4     9.665174853598273E-4     9.650020434902981E-4     9.635512285096205E-4     9.621623386175023E-4     9.608326720136517E-4     9.59537504225565E-4      9.581866710671689E-4     9.568547035884433E-4     9.555363701170504E-4     9.542264389806521E-4     9.529196785069107E-4     9.516108570234881E-4     9.502947428580459E-4     9.489661043382471E-4     9.476197097917531E-4     9.462503275462258E-4     9.448621515797615E-4     9.436360885950588E-4     9.424237140409068E-4     9.412240909744319E-4     9.400362824527616E-4     9.388593515330223E-4     9.376923612723408E-4     9.365343747278435E-4     9.353844549566577E-4     9.342416650159096E-4     9.331050679627261E-4     9.319737268542341E-4     9.309224078123739E-4     9.29902451987846E-4      9.28908219968651E-4      9.279405582552346E-4     9.270003133480432E-4     9.26088331747523E-4      9.252054599541197E-4     9.243525444682803E-4     9.2353043179045E-4       9.227399684210753E-4     9.219583567583353E-4     9.211998579335697E-4     9.204673523519384E-4     9.197610192547994E-4     9.190810378835108E-4     9.184275874794298E-4     9.178008472839155E-4     9.172009965383247E-4     9.166282144840162E-4     9.160826803623475E-4     9.155506021061003E-4     9.150394178165534E-4     9.14550906548103E-4      9.140848173156735E-4     9.136408991341889E-4     9.132189010185736E-4     9.128185719837517E-4     9.124396610446476E-4     9.120819172161857E-4     9.11745795174962E-4      9.114306519322825E-4     9.111361924763416E-4     9.108621898689753E-4     9.106084171720192E-4     9.103746474473091E-4     9.101606537566805E-4     9.099662091619695E-4     9.097910867250116E-4     9.096397953643387E-4     9.09509228156545E-4      9.093990660044046E-4     9.09309243801458E-4      9.092396964412452E-4     9.091903588173069E-4     9.091611658231833E-4     9.091520523524149E-4     9.091631437717192E-4     9.091942816120221E-4     9.092453868665077E-4     9.093164025552494E-4     9.094072716983206E-4     9.095179373157952E-4     9.096483424277457E-4     9.097996293918281E-4     9.09971884856472E-4      9.101645500673173E-4     9.103776600027179E-4     9.106112496410286E-4     9.108653539606036E-4     9.11140007939798E-4      9.11435466178452E-4      9.117520916976527E-4     9.120896445443962E-4     9.12448191325335E-4      9.128277986471203E-4     9.132285331164039E-4     9.136504613398377E-4     9.140936405017338E-4     9.145580515853764E-4     9.150438168946468E-4     9.155509983335628E-4     9.16079657806142E-4      9.166298792569871E-4     9.172027397583E-4        9.177977925238966E-4     9.184151767794565E-4     9.190550317506593E-4     9.197174966631856E-4     9.204039005338762E-4     9.211139295109659E-4     9.218477808430574E-4     9.226057068525245E-4     9.233879598617398E-4     9.241946836196907E-4     9.25026156575837E-4      9.258826330571548E-4     9.267643537992034E-4     9.276715595375413E-4     9.286047122776364E-4     9.295640371844669E-4     9.305497529358447E-4     9.315621270450977E-4     9.32601427025555E-4      9.336679031440937E-4     9.347618170831692E-4     9.358834365354189E-4     9.370330231131976E-4     9.382158231442196E-4     9.394313670581021E-4     9.406800312369052E-4     9.419622055076928E-4     9.432789373773926E-4     9.446302009027054E-4     9.460162112132728E-4