<?xml version="1.0"?>
<VTKFile type="UnstructuredGrid" version="0.1" byte_order="LittleEndian">
  <UnstructuredGrid>
    <Piece NumberOfCells="960" NumberOfPoints="1296">
      <CellData Scalars="p (Pa)">
        <DataArray type="Float32" Name="p (Pa)" NumberOfComponents="1" format="ascii">
          30979.4 30390.8 29329.8 28053.3 26939 26305.6 26143.1 26174.5 31071.1 30460.5 29350.2 27997.7
          26815.8 26187 26094.5 26181.4 31318.8 30698.4 29560.8 28155.7 26915.5 26289.3 26280.4 26431.2
          31776.2 31195.9 30142 28858 27723.3 27090.8 27061.8 27201.7 32401 31897.8 31000.4 29940
          29032.3 28501 28402.8 28468.7 33074 32659.2 31934 31103 30410.9 29992.6 29859.8 29863.5
          33640.8 33300.2 32714.2 32055.3 31509.2 31167.6 31025.7 30996.1 33963.5 33664.3 33153.5 32583.3
          32107.9 31802.4 31659.7 31617.1 29470 28697.2 27278 25539.3 24060.1 23394.1 23453.2 23674.8
          29520.2 28689.8 27130.7 25152.2 23437.4 22796.5 23093 23477.2 29733.7 28856.8 27170.2 24926.3
          22879.2 22229.6 22885.9 23492.2 30221.5 29401.3 27858.1 25885.8 24100.8 23179 23726.4 24310.5
          30936 30231.3 28945.6 27403.2 26159.2 25498.9 25669 25993.9 31735 31167.7 30166.1 29033.6
          28196.2 27762 27757.3 27888.5 32423.2 31975.1 31205.8 30368.2 29752.9 29428.7 29360.7 29397.1
          32819 32437.5 31792.4 31099.7 30580.3 30296.7 30207.5 30208.4 26445.8 25233.8 22914.9 19925.9
          17411.6 16758.7 17575.2 18366 26379.9 24992.7 22196.8 18236.5 14618.9 14196.7 16137.1 17540.9
          26483.9 24912.2 21529.3 15959.3 9742.49 9642.52 14222.6 16708.8 27029.9 25569.4 22600 18313.7
          13941.4 10765.8 14940.3 17489.9 27939.7 26688.1 24256.1 21130 19006.9 17763.8 19065.2 20384.9
          29030.4 28051.6 26247 24173.2 23117.6 22707.2 23128.5 23674.3 30007.9 29282 28017.3 26687
          25985.8 25771.4 25924.9 26150.7 30578.1 29993.5 29008.5 28009.5 27429.8 27243.5 27307.4 27424.5
          21766.2 19726.3 15571 9693.46 4561.31 4296.32 7354.89 9544.08 21437.1 18893.5 13123.5 2988.68
          -8154.09 -6324.64 2638.34 7118.52 21255 18052.4 9477.61 -14174.8 -58023.3 -44883.4 -6794.77 3563.68
          21881.4 18967.5 12214 -13.1391 -15838.7 -50324.6 -8972.56 3394.59 23112.5 20549 14799.8 5393.68
          2660.46 -1971.57 4211.18 9606.04 24748.5 22788.9 18711.1 13143.2 13029 13045.2 14646.7 16454.5
          26291.5 24956.4 22482 19797.9 19377.5 19661.6 20357.9 21046.8 27199.7 26203.8 24488.4 22812.6
          22288.1 22439.4 22860 23230.1 15400.8 12033.5 4650.51 -7160.61 -18385.8 -16941.4 -8274.54 -3328.45
          14574.4 9931.36 -2458.66 -33603.6 -84488.8 -63885.4 -21477.8 -9094 13768.7 6965.28 -20445.4 -244543
          -1.08358e+06 -654659 -67344.2 -20473.2 14490.2 8534.25 -8181.43 -50446.5 -124491 -946938 -108159 -27731.3
          16163 10478.2 -6844.22 -65029.3 -37692.8 -67829 -41687.6 -11462.2 18744 14496.9 2910.34 -27041.4
          -7941.19 -4587.47 -940.021 5147.95 21306.8 18736.2 13250.9 5788.14 8405.07 10619.9 12368.4 14110.6
          22803 21068.1 17882.9 14649.7 14777.9 15894.1 17015.8 17860.9 7667.36 2632.48 -8949.49 -29003.8
          -44713.3 -42489.6 -27799.7 -19662.7 6144.35 -1346.29 -23857.6 -98969.8 -143326 -122564 -50815.8 -29739.6
          4380.36 -8299.55 -79720.3 -1.07628e+06 -1.10245e+06 -1.11798e+06 -158943 -55625.1 5188.06 -6122.23 -45766.8 -187460
          -262499 -315130 -1.09476e+06 -114497 7442.57 -5140.6 -75949.5 -1.06885e+06 -136992 -103137 -440901 -56680.8
          11517.2 2578.22 -38501.9 -455848 -56282 -25931.4 -34193 -9857.85 15649.8 11063.1 -1244.51 -31592.3
          -8344.44 7.22496 2786.49 6553.42 17979 15214.6 9612.4 2931.76 5448.64 8619.69 10774.3 12291.9
          -722.126 -7323.54 -22384 -48168.5 -70302 -70471.4 -50248.8 -38691.2 -2897.99 -12789.6 -41275.4 -126816
          -173680 -119635 -73072.5 -50519.7 -5401.74 -22535.9 -109711 -1.09885e+06 -1.10547e+06 -325927 -167271 -79766.8
          -4150.41 -21863.3 -112222 -1.11384e+06 -1.13995e+06 -1.10711e+06 -1.03154e+06 -130674 -315.334 -17539.6 -113166 -1.10901e+06
          -261404 -147516 -116960 -48871.9 5465.11 -6969.65 -77338.8 -1.06174e+06 -107482 -38518.3 -25216.8 -13133.6
          11019.3 5124.58 -12308.6 -67311.8 -21677.5 -7005.9 -1168.55 2418.8 14023.9 10625.2 3439.26 -5943.96
          -1516.06 3378.25 6590.38 8414.98 -9048.81 -17309 -35566.7 -64353.3 -106220 -163759 -88130.6 -63690.9
          -11952.1 -24692.6 -57781.7 -110880 -205285 -207336 -106485 -75044.6 -14897.1 -37613.6 -131686 -283815
          -1.10468e+06 -1.16713e+06 -190317 -96801.6 -10886.2 -28910.5 -91184.3 -287787 -1.11013e+06 -1.13264e+06 -177404 -79113.6
          -4326.27 -19836.1 -99425.1 -1.09238e+06 -952916 -144841 -59364.7 -36362.2 3168.42 -5625.26 -32873.1 -120985
          -89083.8 -35258.5 -18448.5 -11288.3 9060.28 4438.21 -6088.79 -22181.3 -16694.7 -7013.42 -1357.57 1511.33
          12122.1 9207.45 3649.58 -2217.78 -1305.05 2268.05 5232.69 6877.02 -16241.6 -26940.4 -52021.1 -90659.7
          -197409 -1.12401e+06 -187859 -101720 -20423.5 -41162.5 -120730 -186858 -278976 -347939 -162116 -118038
          -25363.7 -91010.9 -1.07844e+06 -1.11414e+06 -1.10726e+06 -1.11808e+06 -209394 -170761 -15114.8 -36260.9 -121361 -252059
          -1.10589e+06 -218666 -96489.5 -75656.7 -4858.61 -15292.3 -44374.9 -119806 -143296 -65473.6 -39232.4 -30552.1
          3487.22 -2057.3 -14384.5 -33106.7 -33990.7 -20613.5 -12330.3 -8548.76 9191.08 6083.04 155.044 -6387.56
          -6624.16 -2770.17 627.827 2468.73 12033.1 9921.04 6233.12 2722.45 2291.41 4048.58 5997.6 7159.19
          -19695.1 -30474.8 -54814.8 -97642.4 -217692 -1.13325e+06 -247186 -141195 -23014.5 -40416 -86791.5 -171890
          -324618 -1.12586e+06 -276494 -223441 -24768.7 -55499.5 -184058 -817336 -1.10678e+06 -342689 -260531 -1.11616e+06
          -14584.9 -30289.1 -74307.3 -176916 -202774 -115008 -91403 -125079 -3566.28 -11180.2 -28545.2 -55810.1
          -57983.1 -41567.3 -32222.3 -30825.1 4846.97 976.581 -6573.93 -15415.9 -16493.5 -12033.9 -8110.13 -6280.07
          10266.4 8092.03 4265.21 466.507 -356.096 1183.56 3026.23 4108.49 12888.8 11372.6 8840.18 6483.02
          5770.27 6507.48 7631.31 8364.19 -20092.6 -31110.6 -56748.7 -95119.1 -159547 -308906 -202417 -143519
          -23318.6 -43948.8 -120721 -199906 -315977 -1.12847e+06 -372542 -222231 -25870.4 -86616.6 -990584 -1.14347e+06
          -1.10904e+06 -1.10921e+06 -1.10887e+06 -751633 -13739.6 -33596.8 -131129 -1.07419e+06 -197339 -146864 -125444 -100548
          -2049.57 -9630.16 -30504.1 -88809.4 -50026.8 -37351 -29812.6 -25459.1 6345.23 3006.7 -3772.18 -12737.5
          -10987.5 -7862.81 -5055.28 -3449.62 11550 9811.1 6763.84 3701.56 3134.92 4016.72 5231.19 6012.21
          14017.9 12837.1 10883.5 9043.47 8357.89 8685.92 9385.58 9883.07 -17448.9 -26576.9 -47391.8 -83792.7
          -137669 -236120 -213034 -125865 -18790.2 -32226.3 -69714 -167385 -289996 -1.12266e+06 -1.12003e+06 -191681
          -18090.6 -39871.7 -147759 -1.11454e+06 -1.10397e+06 -1.1328e+06 -238390 -132724 -9656.27 -23808.9 -90401.1 -889256
          -178237 -133588 -69703.7 -50718.6 272.327 -6063.94 -23401.7 -73098.9 -42462.5 -31584.3 -21258 -16387.2
          7928.51 5065.35 -742.941 -8470.27 -7158.01 -4605.72 -1789.75 -149.105 12779.8 11304.9 8725.23 6115.64
          5565.16 6204.6 7235.13 7927.72 15092.5 14103.5 12470.1 10914.1 10270.8 10446.9 10976.4 11375.8
          -14558 -22347 -40221.6 -72853.1 -123208 -139691 -112768 -84574.3 -14716.5 -24526.9 -49749.3 -107872
          -253968 -285989 -179531 -92923.3 -12645.3 -24569.4 -61330 -196508 -1.1047e+06 -1.11423e+06 -151954 -70551.4
          -5948.54 -14942.4 -40471.4 -112946 -141402 -121594 -52027.8 -33653.9 2370.49 -2488.62 -13424.1 -30631.3
          -32527.1 -26433.5 -15655.5 -10576.7 9239.19 6817.79 2231.34 -2945.21 -3817.05 -2030.47 778.918 2471.88
          13749 12451.2 10227.6 8045.61 7340.32 7840.53 8825.12 9505.17 15931 15052.3 13609.6 12238.1
          11623 11755.4 12236.6 12607.7 -12945.5 -20559.7 -38910 -77511.5 -166862 -113210 -79050.4 -61893.2
          -12889.8 -22452.4 -49734.3 -148327 -1.11607e+06 -222056 -96863.2 -62422.6 -10766.7 -22127.5 -58787.7 -201071
          -1.10348e+06 -1.08367e+06 -121329 -51527 -4694.95 -13766.2 -40878.6 -124044 -139705 -108929 -42376.1 -25540.8
          3215.19 -1701.81 -13066.5 -31382.2 -31079.8 -22922.7 -12042.9 -7069.76 9882.77 7466.45 2836.39 -2391.35
          -2757.89 -483.481 2488.79 4217.98 14293.1 13024.9 10846.6 8732.53 8186.79 8829.09 9879.07 10579.6
          16431.5 15588 14204.9 12906.1 12372.3 12563 13069.2 13446.7 -12480.8 -20282.5 -38920.1 -73484.5
          -108252 -87561.7 -63945.1 -51606.9 -12697.3 -23297.9 -55008.7 -153612 -238825 -119356 -68816.6 -49726.1
          -11235 -26975.6 -111049 -1.10295e+06 -1.10348e+06 -181869 -64772 -39597.4 -5355.29 -18934.7 -94809.9 -1.09558e+06
          -165304 -63570.9 -31696.1 -20651.5 3018.34 -3226.34 -21751.2 -79906.5 -36568.6 -19063.2 -9463.99 -5134.57
          9943.17 7202.04 1432.66 -6503.99 -3561.72 258.426 3402.25 5104.99 14441.4 13104.7 10742.1 8384.12
          8266.52 9223.57 10371.2 11091.3 16601.3 15747.5 14339.7 13030.2 12602.7 12890.1 13440.9 13832.2
        </DataArray>
        <DataArray type="Float32" Name="saturation" NumberOfComponents="1" format="ascii">
          0.295744 0.29519 0.294208 0.293058 0.29208 0.291534 0.291396 0.291422 0.295832 0.295255 0.294227 0.293008
          0.291973 0.291433 0.291354 0.291428 0.296068 0.295479 0.29442 0.293149 0.292059 0.29152 0.291513 0.291642
          0.296508 0.29595 0.294957 0.293779 0.292766 0.292212 0.292186 0.292308 0.297116 0.296625 0.295764 0.29477
          0.293937 0.293457 0.293369 0.293428 0.297781 0.29737 0.29666 0.295862 0.295208 0.294818 0.294695 0.294699
          0.29835 0.298008 0.297424 0.296778 0.29625 0.295923 0.295788 0.29576 0.298678 0.298374 0.297861 0.297295
          0.29683 0.296533 0.296395 0.296354 0.294336 0.293634 0.292375 0.290884 0.289659 0.28912 0.289168 0.289347
          0.294382 0.293627 0.292246 0.29056 0.289155 0.288643 0.288879 0.289187 0.294579 0.293778 0.292281 0.290372
          0.288708 0.288195 0.288714 0.289199 0.295031 0.294273 0.292885 0.291177 0.289693 0.288948 0.289388 0.289864
          0.295703 0.29504 0.293858 0.292484 0.291409 0.29085 0.290994 0.291269 0.296468 0.295924 0.29498 0.293938
          0.293185 0.2928 0.292796 0.292912 0.297138 0.2967 0.29596 0.295168 0.294597 0.294298 0.294236 0.29427
          0.297528 0.297152 0.296523 0.295859 0.295367 0.295102 0.295018 0.295019 0.291654 0.290628 0.288737 0.286428
          0.28459 0.284127 0.284707 0.285277 0.291598 0.290427 0.288169 0.285183 0.28265 0.282366 0.283692 0.284682
          0.291687 0.29036 0.287649 0.283568 0.279494 0.279432 0.282383 0.284092 0.292159 0.29091 0.288487 0.285239
          0.282195 0.280133 0.282868 0.284646 0.292957 0.291863 0.28982 0.287341 0.285746 0.284842 0.285789 0.286774
          0.293935 0.293056 0.291484 0.289752 0.288898 0.288572 0.288907 0.289346 0.294833 0.294164 0.293026 0.291862
          0.291262 0.29108 0.29121 0.291402 0.295365 0.294819 0.293915 0.293019 0.292507 0.292345 0.2924 0.292503
          0.287833 0.286279 0.2833 0.279464 0.276425 0.276275 0.278046 0.279371 0.287578 0.285663 0.281652 0.275546
          0.269907 0.270768 0.275353 0.277906 0.287438 0.28505 0.27933 0.267231 0.252869 0.256437 0.270545 0.275865
          0.287923 0.285717 0.281059 0.273928 0.266531 0.254899 0.26953 0.27577 0.288894 0.286898 0.282773 0.2769
          0.275365 0.272914 0.276227 0.279409 0.290225 0.288637 0.285529 0.281665 0.28159 0.281601 0.282669 0.283914
          0.291522 0.290397 0.288394 0.286333 0.28602 0.286231 0.286753 0.287278 0.292306 0.291447 0.29001 0.288655
          0.288241 0.28836 0.288693 0.288989 0.283183 0.280942 0.276476 0.270372 0.26549 0.266076 0.269851 0.27223
          0.28262 0.279611 0.272667 0.259939 0.246947 0.251427 0.264272 0.269474 0.282079 0.277815 0.264673 0.227922
          0.206019 0.21221 0.250613 0.264662 0.282563 0.278754 0.269895 0.254866 0.240188 0.207545 0.242696 0.261956
          0.28371 0.279952 0.270521 0.251155 0.258617 0.250501 0.257384 0.268408 0.285553 0.282568 0.275502 0.262202
          0.270006 0.271608 0.273445 0.276759 0.287477 0.285547 0.281736 0.277127 0.278675 0.280041 0.281159 0.282308
          0.288648 0.287294 0.284928 0.282671 0.282758 0.283523 0.284309 0.284912 0.278232 0.27535 0.26954 0.261506
          0.256487 0.257143 0.261931 0.264981 0.277334 0.273235 0.263369 0.24425 0.237634 0.240468 0.254765 0.26125
          0.276323 0.26984 0.24791 0.206094 0.205831 0.205679 0.235746 0.253484 0.276782 0.270865 0.256181 0.232727
          0.226665 0.223493 0.205907 0.241686 0.278098 0.271338 0.248702 0.20617 0.238457 0.243531 0.217996 0.253212
          0.28061 0.27532 0.258363 0.217478 0.253314 0.262604 0.259745 0.269126 0.283354 0.280321 0.273287 0.260614
          0.269819 0.273939 0.275434 0.277573 0.284997 0.283055 0.279413 0.275514 0.276932 0.278805 0.280139 0.281109
          0.273558 0.270295 0.263925 0.255498 0.249939 0.249901 0.25492 0.258304 0.272446 0.267827 0.257509 0.239854
          0.234123 0.240902 0.249324 0.254846 0.271211 0.263867 0.242444 0.205866 0.205801 0.222921 0.234811 0.247901
          0.271822 0.264124 0.242043 0.205719 0.205469 0.205785 0.206565 0.239313 0.27377 0.265832 0.241894 0.205766
          0.226739 0.237109 0.241307 0.255301 0.276941 0.270462 0.248407 0.206244 0.242807 0.258358 0.262865 0.267678
          0.280294 0.276746 0.268036 0.250621 0.264196 0.270445 0.273326 0.275233 0.28225 0.280045 0.275795 0.27095
          0.273148 0.275761 0.277595 0.278681 0.269495 0.265925 0.259297 0.251315 0.243015 0.235199 0.246238 0.251473
          0.268192 0.263058 0.252931 0.242256 0.231073 0.230893 0.242971 0.248896 0.266925 0.258642 0.239173 0.225297
          0.205809 0.205218 0.232451 0.244634 0.268664 0.261539 0.245659 0.225055 0.205755 0.205538 0.233735 0.248036
          0.271736 0.264912 0.24417 0.205931 0.207471 0.237443 0.252532 0.25904 0.275645 0.271103 0.260182 0.240701
          0.246056 0.259397 0.265464 0.268485 0.279074 0.276355 0.270881 0.264002 0.266177 0.270441 0.273229 0.27474
          0.280999 0.279164 0.275912 0.272789 0.273256 0.27515 0.276808 0.277763 0.266364 0.262239 0.254438 0.245758
          0.231784 0.205621 0.232689 0.243773 0.264682 0.257543 0.240739 0.232786 0.225597 0.221823 0.235384 0.241143
          0.262811 0.245692 0.206072 0.205716 0.205783 0.205678 0.230714 0.234433 0.266834 0.259073 0.240645 0.227383
          0.205797 0.22993 0.244689 0.248764 0.271475 0.266759 0.256586 0.240877 0.237638 0.25105 0.258135 0.260969
          0.275822 0.272871 0.267142 0.260105 0.259811 0.264608 0.268027 0.269725 0.279154 0.277298 0.274017 0.270738
          0.270626 0.27251 0.274267 0.27526 0.280942 0.279605 0.277386 0.275399 0.275163 0.276136 0.277249 0.27793
          0.264968 0.260996 0.253696 0.244484 0.23001 0.205533 0.22773 0.237907 0.263686 0.257771 0.246496 0.234313
          0.222989 0.205603 0.225753 0.22954 0.26303 0.253517 0.233062 0.209319 0.205788 0.222077 0.226798 0.205696
          0.267057 0.26106 0.249055 0.233785 0.231297 0.241607 0.245619 0.240103 0.272111 0.268533 0.261668 0.253437
          0.25288 0.25742 0.260401 0.260875 0.276587 0.274453 0.270649 0.266707 0.26626 0.268156 0.269928 0.270789
          0.27982 0.278486 0.276258 0.274182 0.273749 0.274564 0.275566 0.27617 0.281498 0.280518 0.27894 0.277532
          0.277117 0.277546 0.27821 0.278651 0.264812 0.260778 0.253194 0.244936 0.235676 0.223834 0.231329 0.23761
          0.263571 0.256711 0.24074 0.231556 0.223447 0.205578 0.220693 0.229638 0.262626 0.24653 0.207024 0.205436
          0.205766 0.205764 0.205768 0.21038 0.267417 0.259942 0.23925 0.206115 0.231791 0.23719 0.24005 0.243975
          0.272875 0.26923 0.260986 0.246108 0.254981 0.258725 0.261225 0.262776 0.277451 0.275556 0.272009 0.267849
          0.268619 0.270043 0.271379 0.27217 0.280631 0.279536 0.277696 0.275942 0.275627 0.276118 0.276807 0.277257
          0.282246 0.281464 0.280208 0.279064 0.278647 0.278846 0.279274 0.279581 0.265868 0.26237 0.255717 0.247085
          0.238367 0.228548 0.230401 0.23999 0.265328 0.2604 0.250071 0.234799 0.224922 0.205634 0.205659 0.232321
          0.265608 0.257938 0.237079 0.205712 0.205816 0.205537 0.228377 0.239031 0.269218 0.263387 0.245806 0.208288
          0.233649 0.238913 0.250074 0.254791 0.274079 0.270893 0.26354 0.249318 0.257151 0.260617 0.264357 0.266304
          0.278388 0.276712 0.273547 0.269761 0.270373 0.271599 0.273007 0.273857 0.281427 0.280475 0.27887 0.277317
          0.276999 0.277369 0.277975 0.278388 0.282972 0.282303 0.281225 0.280227 0.279823 0.279933 0.280266 0.28052
          0.267068 0.263939 0.25783 0.249372 0.240374 0.238102 0.241957 0.24693 0.267001 0.26312 0.255058 0.242743
          0.22725 0.225164 0.233517 0.245337 0.267889 0.263104 0.252045 0.231868 0.205808 0.205715 0.236568 0.249883
          0.270948 0.266906 0.257754 0.241929 0.237881 0.240611 0.254436 0.259923 0.275206 0.272652 0.267552 0.260942
          0.260298 0.262422 0.266607 0.268803 0.279184 0.277728 0.27513 0.272422 0.271987 0.272884 0.274348 0.275262
          0.282066 0.281212 0.279796 0.278459 0.278037 0.278335 0.27893 0.279347 0.283549 0.282944 0.281974 0.281074
          0.280678 0.280763 0.281073 0.281314 0.267759 0.264629 0.258235 0.248371 0.234856 0.241887 0.248049 0.251907
          0.267783 0.263899 0.255062 0.237009 0.205697 0.229652 0.244623 0.251779 0.268718 0.264023 0.252676 0.23145
          0.20582 0.206018 0.24065 0.254571 0.271555 0.267406 0.257629 0.240252 0.2381 0.242571 0.257177 0.262746
          0.275671 0.273052 0.267707 0.260685 0.260788 0.263721 0.268153 0.270415 0.279581 0.278112 0.275462 0.272701
          0.272516 0.273682 0.275271 0.276231 0.28243 0.281587 0.280184 0.278874 0.278544 0.278933 0.279579 0.280016
          0.283897 0.283312 0.282371 0.281509 0.281161 0.281285 0.281617 0.281866 0.267961 0.264737 0.258232 0.249234
          0.242681 0.246347 0.251412 0.25455 0.267867 0.263579 0.253645 0.236369 0.228344 0.240944 0.250275 0.255064
          0.268509 0.262226 0.242229 0.205826 0.20582 0.23328 0.251215 0.258022 0.271234 0.26527 0.244992 0.205899
          0.235028 0.251502 0.260579 0.264593 0.275562 0.272281 0.264167 0.247872 0.258974 0.265219 0.269305 0.271341
          0.279618 0.277955 0.274698 0.270683 0.272114 0.274072 0.275775 0.276735 0.28253 0.28164 0.280118 0.278663
          0.278592 0.279174 0.279885 0.280339 0.284017 0.283422 0.282462 0.281591 0.281311 0.281499 0.281862 0.282122
        </DataArray>
        <DataArray type="Float32" Name="process rank" NumberOfComponents="1" format="ascii">
          0 0 0 0 0 0 0 0 0 0 0 0
          0 0 0 0 0 0 0 0 0 0 0 0
          0 0 0 0 0 0 0 0 0 0 0 0
          0 0 0 0 0 0 0 0 0 0 0 0
          0 0 0 0 0 0 0 0 0 0 0 0
          0 0 0 0 0 0 0 0 0 0 0 0
          0 0 0 0 0 0 0 0 0 0 0 0
          0 0 0 0 0 0 0 0 0 0 0 0
          0 0 0 0 0 0 0 0 0 0 0 0
          0 0 0 0 0 0 0 0 0 0 0 0
          0 0 0 0 0 0 0 0 0 0 0 0
          0 0 0 0 0 0 0 0 0 0 0 0
          0 0 0 0 0 0 0 0 0 0 0 0
          0 0 0 0 0 0 0 0 0 0 0 0
          0 0 0 0 0 0 0 0 0 0 0 0
          0 0 0 0 0 0 0 0 0 0 0 0
          0 0 0 0 0 0 0 0 0 0 0 0
          0 0 0 0 0 0 0 0 0 0 0 0
          0 0 0 0 0 0 0 0 0 0 0 0
          0 0 0 0 0 0 0 0 0 0 0 0
          0 0 0 0 0 0 0 0 0 0 0 0
          0 0 0 0 0 0 0 0 0 0 0 0
          0 0 0 0 0 0 0 0 0 0 0 0
          0 0 0 0 0 0 0 0 0 0 0 0
          0 0 0 0 0 0 0 0 0 0 0 0
          0 0 0 0 0 0 0 0 0 0 0 0
          0 0 0 0 0 0 0 0 0 0 0 0
          0 0 0 0 0 0 0 0 0 0 0 0
          0 0 0 0 0 0 0 0 0 0 0 0
          0 0 0 0 0 0 0 0 0 0 0 0
          0 0 0 0 0 0 0 0 0 0 0 0
          0 0 0 0 0 0 0 0 0 0 0 0
          0 0 0 0 0 0 0 0 0 0 0 0
          0 0 0 0 0 0 0 0 0 0 0 0
          0 0 0 0 0 0 0 0 0 0 0 0
          0 0 0 0 0 0 0 0 0 0 0 0
          0 0 0 0 0 0 0 0 0 0 0 0
          0 0 0 0 0 0 0 0 0 0 0 0
          0 0 0 0 0 0 0 0 0 0 0 0
          0 0 0 0 0 0 0 0 0 0 0 0
          0 0 0 0 0 0 0 0 0 0 0 0
          0 0 0 0 0 0 0 0 0 0 0 0
          0 0 0 0 0 0 0 0 0 0 0 0
          0 0 0 0 0 0 0 0 0 0 0 0
          0 0 0 0 0 0 0 0 0 0 0 0
          0 0 0 0 0 0 0 0 0 0 0 0
          0 0 0 0 0 0 0 0 0 0 0 0
          0 0 0 0 0 0 0 0 0 0 0 0
          0 0 0 0 0 0 0 0 0 0 0 0
          0 0 0 0 0 0 0 0 0 0 0 0
          0 0 0 0 0 0 0 0 0 0 0 0
          0 0 0 0 0 0 0 0 0 0 0 0
          0 0 0 0 0 0 0 0 0 0 0 0
          0 0 0 0 0 0 0 0 0 0 0 0
          0 0 0 0 0 0 0 0 0 0 0 0
          0 0 0 0 0 0 0 0 0 0 0 0
          0 0 0 0 0 0 0 0 0 0 0 0
          0 0 0 0 0 0 0 0 0 0 0 0
          0 0 0 0 0 0 0 0 0 0 0 0
          0 0 0 0 0 0 0 0 0 0 0 0
          0 0 0 0 0 0 0 0 0 0 0 0
          0 0 0 0 0 0 0 0 0 0 0 0
          0 0 0 0 0 0 0 0 0 0 0 0
          0 0 0 0 0 0 0 0 0 0 0 0
          0 0 0 0 0 0 0 0 0 0 0 0
          0 0 0 0 0 0 0 0 0 0 0 0
          0 0 0 0 0 0 0 0 0 0 0 0
          0 0 0 0 0 0 0 0 0 0 0 0
          0 0 0 0 0 0 0 0 0 0 0 0
          0 0 0 0 0 0 0 0 0 0 0 0
          0 0 0 0 0 0 0 0 0 0 0 0
          0 0 0 0 0 0 0 0 0 0 0 0
          0 0 0 0 0 0 0 0 0 0 0 0
          0 0 0 0 0 0 0 0 0 0 0 0
          0 0 0 0 0 0 0 0 0 0 0 0
          0 0 0 0 0 0 0 0 0 0 0 0
          0 0 0 0 0 0 0 0 0 0 0 0
          0 0 0 0 0 0 0 0 0 0 0 0
          0 0 0 0 0 0 0 0 0 0 0 0
          0 0 0 0 0 0 0 0 0 0 0 0
        </DataArray>
      </CellData>
      <Points>
        <DataArray type="Float32" Name="Coordinates" NumberOfComponents="3" format="ascii">
          -0.04 -0.04 -0.15 -0.03 -0.04 -0.15 -0.04 -0.03 -0.15 -0.03 -0.03 -0.15
          -0.04 -0.04 -0.14 -0.03 -0.04 -0.14 -0.04 -0.03 -0.14 -0.03 -0.03 -0.14
          -0.02 -0.04 -0.15 -0.02 -0.03 -0.15 -0.02 -0.04 -0.14 -0.02 -0.03 -0.14
          -0.01 -0.04 -0.15 -0.01 -0.03 -0.15 -0.01 -0.04 -0.14 -0.01 -0.03 -0.14
          -1.73472e-18 -0.04 -0.15 -1.73472e-18 -0.03 -0.15 -1.73472e-18 -0.04 -0.14 -1.73472e-18 -0.03 -0.14
          0.01 -0.04 -0.15 0.01 -0.03 -0.15 0.01 -0.04 -0.14 0.01 -0.03 -0.14
          0.02 -0.04 -0.15 0.02 -0.03 -0.15 0.02 -0.04 -0.14 0.02 -0.03 -0.14
          0.03 -0.04 -0.15 0.03 -0.03 -0.15 0.03 -0.04 -0.14 0.03 -0.03 -0.14
          0.04 -0.04 -0.15 0.04 -0.03 -0.15 0.04 -0.04 -0.14 0.04 -0.03 -0.14
          -0.04 -0.02 -0.15 -0.03 -0.02 -0.15 -0.04 -0.02 -0.14 -0.03 -0.02 -0.14
          -0.02 -0.02 -0.15 -0.02 -0.02 -0.14 -0.01 -0.02 -0.15 -0.01 -0.02 -0.14
          -1.73472e-18 -0.02 -0.15 -1.73472e-18 -0.02 -0.14 0.01 -0.02 -0.15 0.01 -0.02 -0.14
          0.02 -0.02 -0.15 0.02 -0.02 -0.14 0.03 -0.02 -0.15 0.03 -0.02 -0.14
          0.04 -0.02 -0.15 0.04 -0.02 -0.14 -0.04 -0.01 -0.15 -0.03 -0.01 -0.15
          -0.04 -0.01 -0.14 -0.03 -0.01 -0.14 -0.02 -0.01 -0.15 -0.02 -0.01 -0.14
          -0.01 -0.01 -0.15 -0.01 -0.01 -0.14 -1.73472e-18 -0.01 -0.15 -1.73472e-18 -0.01 -0.14
          0.01 -0.01 -0.15 0.01 -0.01 -0.14 0.02 -0.01 -0.15 0.02 -0.01 -0.14
          0.03 -0.01 -0.15 0.03 -0.01 -0.14 0.04 -0.01 -0.15 0.04 -0.01 -0.14
          -0.04 -1.73472e-18 -0.15 -0.03 -1.73472e-18 -0.15 -0.04 -1.73472e-18 -0.14 -0.03 -1.73472e-18 -0.14
          -0.02 -1.73472e-18 -0.15 -0.02 -1.73472e-18 -0.14 -0.01 -1.73472e-18 -0.15 -0.01 -1.73472e-18 -0.14
          -1.73472e-18 -1.73472e-18 -0.15 -1.73472e-18 -1.73472e-18 -0.14 0.01 -1.73472e-18 -0.15 0.01 -1.73472e-18 -0.14
          0.02 -1.73472e-18 -0.15 0.02 -1.73472e-18 -0.14 0.03 -1.73472e-18 -0.15 0.03 -1.73472e-18 -0.14
          0.04 -1.73472e-18 -0.15 0.04 -1.73472e-18 -0.14 -0.04 0.01 -0.15 -0.03 0.01 -0.15
          -0.04 0.01 -0.14 -0.03 0.01 -0.14 -0.02 0.01 -0.15 -0.02 0.01 -0.14
          -0.01 0.01 -0.15 -0.01 0.01 -0.14 -1.73472e-18 0.01 -0.15 -1.73472e-18 0.01 -0.14
          0.01 0.01 -0.15 0.01 0.01 -0.14 0.02 0.01 -0.15 0.02 0.01 -0.14
          0.03 0.01 -0.15 0.03 0.01 -0.14 0.04 0.01 -0.15 0.04 0.01 -0.14
          -0.04 0.02 -0.15 -0.03 0.02 -0.15 -0.04 0.02 -0.14 -0.03 0.02 -0.14
          -0.02 0.02 -0.15 -0.02 0.02 -0.14 -0.01 0.02 -0.15 -0.01 0.02 -0.14
          -1.73472e-18 0.02 -0.15 -1.73472e-18 0.02 -0.14 0.01 0.02 -0.15 0.01 0.02 -0.14
          0.02 0.02 -0.15 0.02 0.02 -0.14 0.03 0.02 -0.15 0.03 0.02 -0.14
          0.04 0.02 -0.15 0.04 0.02 -0.14 -0.04 0.03 -0.15 -0.03 0.03 -0.15
          -0.04 0.03 -0.14 -0.03 0.03 -0.14 -0.02 0.03 -0.15 -0.02 0.03 -0.14
          -0.01 0.03 -0.15 -0.01 0.03 -0.14 -1.73472e-18 0.03 -0.15 -1.73472e-18 0.03 -0.14
          0.01 0.03 -0.15 0.01 0.03 -0.14 0.02 0.03 -0.15 0.02 0.03 -0.14
          0.03 0.03 -0.15 0.03 0.03 -0.14 0.04 0.03 -0.15 0.04 0.03 -0.14
          -0.04 0.04 -0.15 -0.03 0.04 -0.15 -0.04 0.04 -0.14 -0.03 0.04 -0.14
          -0.02 0.04 -0.15 -0.02 0.04 -0.14 -0.01 0.04 -0.15 -0.01 0.04 -0.14
          -1.73472e-18 0.04 -0.15 -1.73472e-18 0.04 -0.14 0.01 0.04 -0.15 0.01 0.04 -0.14
          0.02 0.04 -0.15 0.02 0.04 -0.14 0.03 0.04 -0.15 0.03 0.04 -0.14
          0.04 0.04 -0.15 0.04 0.04 -0.14 -0.04 -0.04 -0.13 -0.03 -0.04 -0.13
          -0.04 -0.03 -0.13 -0.03 -0.03 -0.13 -0.02 -0.04 -0.13 -0.02 -0.03 -0.13
          -0.01 -0.04 -0.13 -0.01 -0.03 -0.13 -1.73472e-18 -0.04 -0.13 -1.73472e-18 -0.03 -0.13
          0.01 -0.04 -0.13 0.01 -0.03 -0.13 0.02 -0.04 -0.13 0.02 -0.03 -0.13
          0.03 -0.04 -0.13 0.03 -0.03 -0.13 0.04 -0.04 -0.13 0.04 -0.03 -0.13
          -0.04 -0.02 -0.13 -0.03 -0.02 -0.13 -0.02 -0.02 -0.13 -0.01 -0.02 -0.13
          -1.73472e-18 -0.02 -0.13 0.01 -0.02 -0.13 0.02 -0.02 -0.13 0.03 -0.02 -0.13
          0.04 -0.02 -0.13 -0.04 -0.01 -0.13 -0.03 -0.01 -0.13 -0.02 -0.01 -0.13
          -0.01 -0.01 -0.13 -1.73472e-18 -0.01 -0.13 0.01 -0.01 -0.13 0.02 -0.01 -0.13
          0.03 -0.01 -0.13 0.04 -0.01 -0.13 -0.04 -1.73472e-18 -0.13 -0.03 -1.73472e-18 -0.13
          -0.02 -1.73472e-18 -0.13 -0.01 -1.73472e-18 -0.13 -1.73472e-18 -1.73472e-18 -0.13 0.01 -1.73472e-18 -0.13
          0.02 -1.73472e-18 -0.13 0.03 -1.73472e-18 -0.13 0.04 -1.73472e-18 -0.13 -0.04 0.01 -0.13
          -0.03 0.01 -0.13 -0.02 0.01 -0.13 -0.01 0.01 -0.13 -1.73472e-18 0.01 -0.13
          0.01 0.01 -0.13 0.02 0.01 -0.13 0.03 0.01 -0.13 0.04 0.01 -0.13
          -0.04 0.02 -0.13 -0.03 0.02 -0.13 -0.02 0.02 -0.13 -0.01 0.02 -0.13
          -1.73472e-18 0.02 -0.13 0.01 0.02 -0.13 0.02 0.02 -0.13 0.03 0.02 -0.13
          0.04 0.02 -0.13 -0.04 0.03 -0.13 -0.03 0.03 -0.13 -0.02 0.03 -0.13
          -0.01 0.03 -0.13 -1.73472e-18 0.03 -0.13 0.01 0.03 -0.13 0.02 0.03 -0.13
          0.03 0.03 -0.13 0.04 0.03 -0.13 -0.04 0.04 -0.13 -0.03 0.04 -0.13
          -0.02 0.04 -0.13 -0.01 0.04 -0.13 -1.73472e-18 0.04 -0.13 0.01 0.04 -0.13
          0.02 0.04 -0.13 0.03 0.04 -0.13 0.04 0.04 -0.13 -0.04 -0.04 -0.12
          -0.03 -0.04 -0.12 -0.04 -0.03 -0.12 -0.03 -0.03 -0.12 -0.02 -0.04 -0.12
          -0.02 -0.03 -0.12 -0.01 -0.04 -0.12 -0.01 -0.03 -0.12 -1.73472e-18 -0.04 -0.12
          -1.73472e-18 -0.03 -0.12 0.01 -0.04 -0.12 0.01 -0.03 -0.12 0.02 -0.04 -0.12
          0.02 -0.03 -0.12 0.03 -0.04 -0.12 0.03 -0.03 -0.12 0.04 -0.04 -0.12
          0.04 -0.03 -0.12 -0.04 -0.02 -0.12 -0.03 -0.02 -0.12 -0.02 -0.02 -0.12
          -0.01 -0.02 -0.12 -1.73472e-18 -0.02 -0.12 0.01 -0.02 -0.12 0.02 -0.02 -0.12
          0.03 -0.02 -0.12 0.04 -0.02 -0.12 -0.04 -0.01 -0.12 -0.03 -0.01 -0.12
          -0.02 -0.01 -0.12 -0.01 -0.01 -0.12 -1.73472e-18 -0.01 -0.12 0.01 -0.01 -0.12
          0.02 -0.01 -0.12 0.03 -0.01 -0.12 0.04 -0.01 -0.12 -0.04 -1.73472e-18 -0.12
          -0.03 -1.73472e-18 -0.12 -0.02 -1.73472e-18 -0.12 -0.01 -1.73472e-18 -0.12 -1.73472e-18 -1.73472e-18 -0.12
          0.01 -1.73472e-18 -0.12 0.02 -1.73472e-18 -0.12 0.03 -1.73472e-18 -0.12 0.04 -1.73472e-18 -0.12
          -0.04 0.01 -0.12 -0.03 0.01 -0.12 -0.02 0.01 -0.12 -0.01 0.01 -0.12
          -1.73472e-18 0.01 -0.12 0.01 0.01 -0.12 0.02 0.01 -0.12 0.03 0.01 -0.12
          0.04 0.01 -0.12 -0.04 0.02 -0.12 -0.03 0.02 -0.12 -0.02 0.02 -0.12
          -0.01 0.02 -0.12 -1.73472e-18 0.02 -0.12 0.01 0.02 -0.12 0.02 0.02 -0.12
          0.03 0.02 -0.12 0.04 0.02 -0.12 -0.04 0.03 -0.12 -0.03 0.03 -0.12
          -0.02 0.03 -0.12 -0.01 0.03 -0.12 -1.73472e-18 0.03 -0.12 0.01 0.03 -0.12
          0.02 0.03 -0.12 0.03 0.03 -0.12 0.04 0.03 -0.12 -0.04 0.04 -0.12
          -0.03 0.04 -0.12 -0.02 0.04 -0.12 -0.01 0.04 -0.12 -1.73472e-18 0.04 -0.12
          0.01 0.04 -0.12 0.02 0.04 -0.12 0.03 0.04 -0.12 0.04 0.04 -0.12
          -0.04 -0.04 -0.11 -0.03 -0.04 -0.11 -0.04 -0.03 -0.11 -0.03 -0.03 -0.11
          -0.02 -0.04 -0.11 -0.02 -0.03 -0.11 -0.01 -0.04 -0.11 -0.01 -0.03 -0.11
          -1.73472e-18 -0.04 -0.11 -1.73472e-18 -0.03 -0.11 0.01 -0.04 -0.11 0.01 -0.03 -0.11
          0.02 -0.04 -0.11 0.02 -0.03 -0.11 0.03 -0.04 -0.11 0.03 -0.03 -0.11
          0.04 -0.04 -0.11 0.04 -0.03 -0.11 -0.04 -0.02 -0.11 -0.03 -0.02 -0.11
          -0.02 -0.02 -0.11 -0.01 -0.02 -0.11 -1.73472e-18 -0.02 -0.11 0.01 -0.02 -0.11
          0.02 -0.02 -0.11 0.03 -0.02 -0.11 0.04 -0.02 -0.11 -0.04 -0.01 -0.11
          -0.03 -0.01 -0.11 -0.02 -0.01 -0.11 -0.01 -0.01 -0.11 -1.73472e-18 -0.01 -0.11
          0.01 -0.01 -0.11 0.02 -0.01 -0.11 0.03 -0.01 -0.11 0.04 -0.01 -0.11
          -0.04 -1.73472e-18 -0.11 -0.03 -1.73472e-18 -0.11 -0.02 -1.73472e-18 -0.11 -0.01 -1.73472e-18 -0.11
          -1.73472e-18 -1.73472e-18 -0.11 0.01 -1.73472e-18 -0.11 0.02 -1.73472e-18 -0.11 0.03 -1.73472e-18 -0.11
          0.04 -1.73472e-18 -0.11 -0.04 0.01 -0.11 -0.03 0.01 -0.11 -0.02 0.01 -0.11
          -0.01 0.01 -0.11 -1.73472e-18 0.01 -0.11 0.01 0.01 -0.11 0.02 0.01 -0.11
          0.03 0.01 -0.11 0.04 0.01 -0.11 -0.04 0.02 -0.11 -0.03 0.02 -0.11
          -0.02 0.02 -0.11 -0.01 0.02 -0.11 -1.73472e-18 0.02 -0.11 0.01 0.02 -0.11
          0.02 0.02 -0.11 0.03 0.02 -0.11 0.04 0.02 -0.11 -0.04 0.03 -0.11
          -0.03 0.03 -0.11 -0.02 0.03 -0.11 -0.01 0.03 -0.11 -1.73472e-18 0.03 -0.11