<?xml version="1.0"?>
<VTKFile type="UnstructuredGrid" version="0.1" byte_order="LittleEndian">
  <UnstructuredGrid>
    <Piece NumberOfCells="1014" NumberOfPoints="1372">
      <CellData Scalars="p (Pa)">
        <DataArray type="Float32" Name="p (Pa)" NumberOfComponents="1" format="ascii">
          -26352.9 -29628.3 -36226.9 -45738 -56673.7 -68928 -27332.2 -31443 -40122.2 -53054.6 -65568.6 -79972.7
          -28679.2 -34538.7 -48627.6 -73881.5 -86806 -106221 -28964.7 -36715.8 -59944.1 -133404 -120578 -151135
          -26539.6 -32863.5 -48705.1 -80449 -112346 -183221 -22681 -27584.2 -39072.7 -61193.4 -102988 -234176
          -18431.1 -22478.7 -32084.1 -52131.5 -100375 -265441 -14195.2 -17629.2 -26096.6 -46417.9 -125988 -1.01223e+06
          -10134.8 -12839.2 -19280.8 -32889.9 -65318.6 -160654 -6501.66 -8456.09 -12805.8 -20631.3 -33780.2 -52061.9
          -3581.48 -4945.64 -7786.49 -12257.2 -18186.2 -23787.1 -1565.87 -2555.15 -4513.23 -7320.7 -10555.6 -13180
          -543.695 -1356.92 -2922.14 -5060.93 -7374.5 -9188.5 -30442.3 -34366.3 -42399.4 -54039.4 -66321.3 -79824.9
          -31762.4 -37051 -48937.4 -68269.1 -80922.5 -95017 -33694.5 -42330.5 -68091.9 -145365 -127775 -138879
          -34254.1 -47848.1 -123528 -1.08928e+06 -257382 -256421 -30397.1 -39106.7 -65624.8 -149220 -163052 -286447
          -24992.7 -30506.1 -43790.7 -69902.2 -109603 -240992 -19578.4 -23494.4 -32451.4 -49437.2 -83071.2 -188501
          -14597.3 -17582.9 -24391.6 -37563.9 -65223.2 -140983 -10163.3 -12396 -17326.6 -26104.7 -40809.5 -62425
          -6414.07 -8017.01 -11392.1 -16823.4 -24330.1 -32092.3 -3500.44 -4638.54 -6926.38 -10301.3 -14366.6 -17887
          -1523.41 -2369.47 -4010.58 -6286.72 -8809.28 -10856.4 -528.194 -1236.59 -2583.84 -4393.66 -6325.71 -7876.93
          -32768.9 -36986.5 -45701.9 -58620 -73068.5 -88984.5 -34095.9 -39758.4 -52607.5 -74224.3 -93209.8 -110606
          -35951.3 -45076.9 -72322.3 -154835 -194010 -212220 -36177.8 -50157.6 -125609 -1.03982e+06 -1.13123e+06 -1.13651e+06
          -31706 -40613.8 -67631.8 -153232 -246925 -1.13631e+06 -25581.5 -30997.2 -43896.6 -68739.8 -106688 -209132
          -19546.6 -23124.4 -31006.1 -44670 -66495.7 -105333 -14158.2 -16685.3 -22105.1 -31195.2 -45175.9 -64940.3
          -9553.88 -11362.4 -15130.8 -21097.2 -29263.3 -38172.9 -5802.45 -7088.7 -9680.68 -13530.8 -18262.5 -22642.7
          -2960.09 -3885.15 -5692.16 -8233.33 -11121.6 -13585 -1058.9 -1761.69 -3102.43 -4916.6 -6884.31 -8519.62
          -108.393 -706.691 -1833.45 -3328.31 -4916.78 -6235.48 -33048.1 -37108.6 -45478.1 -58078.8 -73616.3 -91837.6
          -34031.4 -39131.1 -50211.6 -67827.9 -88029.4 -109278 -35164.7 -42347.7 -60153.6 -94739.3 -130302 -159542
          -34605.1 -43751.3 -71428.9 -159232 -238033 -294565 -30519.1 -37632.7 -55910.5 -95118.6 -155554 -303543
          -24640.4 -29438.8 -40441.6 -60353.7 -91593.7 -144342 -18600.3 -21799 -28696.2 -40161.4 -56997.2 -79355.2
          -13156.2 -15332.8 -19855.7 -26954.2 -36556.9 -47267.1 -8562.08 -10065.9 -13097.4 -17607.8 -23212.6 -28681.1
          -4889.13 -5942.54 -8009.17 -10942.5 -14346 -17406 -2150.33 -2910.44 -4368.58 -6363.48 -8572.22 -10484.5
          -337.386 -922.483 -2027.05 -3501.57 -5091.51 -6456.25 564.067 60.2698 -882.858 -2126.72 -3453.34 -4595.04
          -31755.8 -35520.7 -43340.9 -55476.8 -71563.7 -91047.3 -32378.1 -36889.7 -46649.8 -62627.2 -84153.1 -107267
          -32902.9 -38780.1 -52710.6 -79267 -120286 -149162 -31938.5 -38959.2 -57695 -104082 -214976 -234851
          -28317.3 -34504.2 -50640.3 -89985.8 -197653 -301837 -22917.2 -27371.5 -37952 -59250.8 -101600 -186746
          -17144.5 -20124.8 -26679.7 -38107.7 -56299.4 -80932.2 -11851.3 -13820.1 -17915.4 -24363.4 -33089.9 -42435.9
          -7384.29 -8699.87 -11328.6 -15183 -19875.3 -24335 -3839.72 -4741.66 -6492.71 -8939.14 -11733.2 -14251.5
          -1218.74 -1865.14 -3095.32 -4761.17 -6596.79 -8221.88 505.28 6.10299 -932.059 -2179.44 -3530.2 -4725.91
          1359.38 927.361 120.347 -943.822 -2088.92 -3107.15 -29508.9 -32969.8 -40259.1 -51949.8 -68229.4 -87636.9
          -29868.9 -33943 -42961.8 -58773.4 -83289.4 -106131 -30026.5 -35254.3 -48301.2 -78395.6 -160855 -168372
          -28942.7 -35316.7 -54717.4 -139382 -1.08619e+06 -376112 -25703.9 -31643.3 -49884.8 -131764 -1.09184e+06 -1.15558e+06
          -20789.6 -25093.2 -36249.4 -65253.1 -176637 -1.06659e+06 -15407.4 -18253.3 -24793.3 -37533.7 -63869.4 -128620
          -10394.9 -12232 -16125.6 -22530.9 -32026 -43932.1 -6138 -7335.44 -9740.93 -13315.1 -17784.7 -22184.2
          -2758.81 -3564.4 -5128.21 -7317.96 -9839.99 -12154.4 -264.976 -836.679 -1923.49 -3395.92 -5029.23 -6506.85
          1371.87 931.358 103.734 -998.795 -2203.38 -3296.92 2181.59 1800 1086.8 143.21 -882.967 -1819.81
          -26778.6 -29886.1 -36453.9 -47097.1 -62303.7 -81526.5 -26919.7 -30478.3 -38306 -51909.9 -73163.1 -101133
          -26764.7 -31121.3 -41541.4 -62994.1 -107659 -197172 -25547 -30606 -44083.7 -80473.6 -218713 -1.15006e+06
          -22634.4 -27422.1 -40279.3 -75579.8 -213271 -1.16123e+06 -18317.2 -22027 -31342.4 -53973.3 -140088 -1.09662e+06
          -13478.8 -16032.9 -21883.2 -33271.7 -57501 -126846 -8869.46 -10546.3 -14107.7 -20009.8 -28972.7 -41138.6
          -4895.36 -5992.23 -8200.01 -11498.8 -15684.3 -19959.9 -1713.28 -2449.94 -3881.79 -5894.48 -8235.27 -10431.9
          645.472 123.81 -869.044 -2218.96 -3729.64 -5123.36 2196.85 1795.2 1039.44 28.5582 -1086.27 -2118.28
          2964.95 2616.96 1965.35 1099.3 148.142 -737.38 -23965.6 -26712.7 -32510.7 -41931 -55606.7 -73539.7
          -23933.5 -26986.6 -33630.5 -45058.2 -63189.6 -89627.9 -23536.9 -27094.1 -35307.8 -51354 -84389.3 -167626
          -22227.3 -26164.5 -35878.1 -58644.8 -141487 -1.02496e+06 -19591.1 -23301.4 -32342.6 -52004.2 -100454 -262206
          -15827.6 -18833.8 -25872 -40023.2 -70795.3 -156937 -11557.2 -13738.2 -18552.8 -27111.3 -41599.4 -64580.7
          -7394.6 -8886.43 -12003.1 -16978.3 -23951 -32066.4 -3733.24 -4735.76 -6742.01 -9704.51 -13388.9 -17094.1
          -759.651 -1443.44 -2771.47 -4636.37 -6806.92 -8870.43 1464.63 976.626 46.6565 -1221.5 -2650.13 -3988.82
          2935.35 2558.33 1847.49 892.714 -168.549 -1165.13 3665.49 3338.45 2724.7 1905.31 998.188 142.231
          -21381 -23810.2 -28918.2 -37189.1 -49226.5 -65306 -21230.5 -23859 -29504.5 -39010.5 -53700.4 -74771.1
          -20681.8 -23615.6 -30157 -42036.8 -63061.5 -100103 -19348.1 -22476.5 -29703.5 -43969.7 -74825.8 -163336
          -16960.8 -19919.9 -26704.6 -39676.8 -64721.5 -118109 -13654.2 -16136 -21675.6 -31694.6 -49058.9 -78449.9
          -9872.2 -11759.2 -15809.4 -22593 -32844.5 -46445 -6110.34 -7457.34 -10235.6 -14558.3 -20365.7 -26873.2
          -2734.56 -3668.92 -5531.93 -8264.72 -11637.9 -15061.1 50.0472 -600.134 -1863.82 -3641.46 -5720.73 -7730.33
          2155.25 1686.34 790.703 -435.916 -1828.16 -3150.25 3556.42 3192.64 2505.02 1577.25 538.841 -445.995
          4254.48 3938.58 3344.33 2547.63 1660.17 815.843 -19227.8 -21414.8 -26002.2 -33420.3 -44279.2 -59145.7
          -19013.2 -21338.1 -26292.4 -34544.1 -47227.6 -65995 -18398.1 -20926.1 -26453.5 -36131.7 -52349.3 -79981.7
          -17101.8 -19752.3 -25680.1 -36550.9 -56401.1 -95354.1 -14935 -17476.8 -23169.8 -33609.5 -52617.8 -91054.5
          -11981.1 -14182 -19030.6 -27611.7 -42103.6 -66433.5 -8570.08 -10307 -14021.9 -20219.5 -29602.7 -42444.5
          -5115.28 -6395.66 -9043.6 -13191.8 -18856.8 -25471.6 -1960 -2868.48 -4689.65 -7389.95 -10788.2 -14356.1
          678.809 38.46 -1213.11 -2991.87 -5106.05 -7194.29 2692.86 2228.71 1338.06 108.541 -1302.51 -2658.48
          4041.34 3681.15 2998.01 2071.13 1026.36 29.2237 4715.28 4402.87 3813.61 3020.3 2132.19 1283.82
          -17606.5 -19629.2 -23868.3 -30725.8 -40824.7 -54943.1 -17368.3 -19502.7 -24040.1 -31591.4 -43323.3 -61675
          -16746.5 -19048.7 -24058.9 -32799.4 -47674.4 -76321.6 -15522.5 -17942.6 -23332.6 -33182.4 -51354.7 -90378.7
          -13541.4 -15915.2 -21269.7 -31331.9 -51012.3 -97881.4 -10845.3 -12965.2 -17715.4 -26506.2 -43045.9 -78297.1
          -7690.33 -9409.71 -13163.2 -19722.4 -30628.1 -48267.8 -4441.11 -5731.89 -8452.5 -12885 -19380.5 -27845.3
          -1430.69 -2354.67 -4235.23 -7106.08 -10894.7 -15134.4 1113.43 461.232 -827.394 -2694.96 -4979.4 -7308.68
          3068.64 2597.51 1687.05 415.103 -1067.7 -2511.65 4383.19 4019.51 3326.76 2380.41 1305.23 274.41
          5041.61 4727.39 4133.04 3329.46 2425.88 1561.45 -16546.8 -18468.8 -22490 -28970.3 -38423.9 -51295.3
          -16306.4 -18331.6 -22628.7 -29745.2 -40643.1 -56821.7 -15703.8 -17892.7 -22652.3 -30930.7 -44798.8 -69095.3
          -14553.4 -16882.8 -22099 -31760.1 -50133.9 -91747.9 -12711.5 -15054.3 -20440.7 -31106.6 -55481.9 -151012
          -10188.4 -12340.1 -17313.3 -27285.9 -50601.4 -143463 -7192.39 -8972.57 -12989.9 -20575.1 -35517 -69994.5
          -4061.93 -5408.69 -8327.05 -13371.9 -21659.7 -34922 -1130.62 -2093.47 -4092.85 -7269.46 -11763 -17359.3
          1363.49 688.189 -663.712 -2671.39 -5222.57 -7951.83 3287.97 2804.31 1862.28 528.189 -1056.51 -2627.26
          4584.74 4214.45 3506 2531.4 1414.91 339.464 5234.97 4916.7 4313.07 3493.74 2568.87 1683.64
          -16048.3 -17921.7 -21834 -28109.2 -37156.9 -49135.1 -15810.8 -17785.2 -21964.7 -28840.6 -39171.3 -53726
          -15225.1 -17364.7 -22006.2 -30006.8 -42991.7 -63554.3 -14119.1 -16414.9 -21553.3 -30986 -48099.2 -80359.2
          -12352.7 -14696.3 -20109.9 -30790.2 -53377.4 -110223 -9919.11 -12113.1 -17270.4 -27979.3 -54500.6 -163257
          -7000.84 -8842.04 -13106.2 -21718.5 -42224 -127570 -3923.25 -5320.52 -8415.91 -14051.2 -24479 -46737.1
          -1024.21 -2019.55 -4118.55 -7565.36 -12772.8 -20164.2 1450.6 757.022 -644.92 -2766.81 -5553.83 -8696.75
          3363.41 2870.17 1904.18 522.424 -1143.79 -2825.17 4653.38 4278.07 3557.92 2562.43 1415 304.791
          5300.43 4979.04 4368.47 3537.64 2597.36 1696.94
        </DataArray>
        <DataArray type="Float32" Name="saturation" NumberOfComponents="1" format="ascii">
          0.262451 0.261288 0.259084 0.25619 0.253214 0.25025 0.262098 0.260665 0.257861 0.254161 0.251027 0.247858
          0.26162 0.259631 0.255369 0.249147 0.246493 0.243014 0.26152 0.258927 0.252387 0.238938 0.240762 0.236667
          0.262383 0.260186 0.255348 0.247761 0.242023 0.233145 0.263812 0.262008 0.258185 0.252079 0.243557 0.228696
          0.265471 0.263889 0.260447 0.254408 0.244005 0.226469 0.267222 0.265795 0.262544 0.255994 0.239972 0.206778
          0.269001 0.267805 0.265132 0.260177 0.251086 0.23555 0.270684 0.269767 0.26782 0.264601 0.259881 0.254427
          0.272104 0.271433 0.270078 0.268059 0.26557 0.263395 0.273122 0.272618 0.271644 0.270296 0.268812 0.267658
          0.273651 0.273229 0.272433 0.271377 0.270271 0.269431 0.261007 0.259688 0.25717 0.2539 0.250851 0.247889
          0.260556 0.25882 0.255283 0.2504 0.247664 0.244954 0.259909 0.257191 0.250441 0.237377 0.239718 0.238208
          0.259725 0.255588 0.240327 0.205962 0.227013 0.227079 0.261023 0.258174 0.251014 0.236899 0.235279 0.225136
          0.262948 0.260985 0.256757 0.250029 0.242461 0.228183 0.265014 0.263505 0.260324 0.255144 0.247229 0.232626
          0.267052 0.265814 0.26317 0.258658 0.251109 0.237935 0.268988 0.267998 0.265918 0.262541 0.25765 0.251778
          0.270725 0.269971 0.268439 0.266124 0.263193 0.260445 0.272144 0.271583 0.270482 0.268926 0.26715 0.265691
          0.273144 0.272712 0.271891 0.270786 0.269605 0.268678 0.273659 0.273291 0.272604 0.271703 0.270768 0.270036
          0.260217 0.258841 0.2562 0.252719 0.249325 0.246074 0.259777 0.257972 0.25428 0.249073 0.245284 0.2423
          0.259172 0.256381 0.249489 0.236224 0.232101 0.230471 0.2591 0.254945 0.240027 0.206476 0.205552 0.205502
          0.260575 0.25771 0.250547 0.236415 0.227749 0.205504 0.262731 0.260817 0.256726 0.250293 0.242937 0.230736
          0.265027 0.263644 0.260814 0.256499 0.25081 0.243162 0.267238 0.266181 0.264032 0.260749 0.256352 0.251176
          0.269264 0.268452 0.266827 0.26442 0.261416 0.258466 0.271018 0.270406 0.269207 0.267507 0.265539 0.263827
          0.272414 0.271953 0.271071 0.269871 0.268559 0.267483 0.273383 0.273022 0.272343 0.271447 0.270502 0.269738
          0.273878 0.273566 0.272985 0.27223 0.271447 0.270811 0.260124 0.258802 0.256265 0.252855 0.249205 0.245538
          0.259798 0.258167 0.25493 0.250502 0.246257 0.242514 0.259427 0.257186 0.252335 0.245005 0.239364 0.235677
          0.25961 0.256769 0.249687 0.235712 0.228404 0.224652 0.260981 0.258636 0.25341 0.244936 0.23614 0.224134
          0.263078 0.261354 0.257763 0.252286 0.245583 0.237506 0.265404 0.264149 0.261614 0.257849 0.253131 0.247986
          0.267668 0.266742 0.264905 0.262234 0.258978 0.255752 0.269718 0.269032 0.267693 0.265804 0.263611 0.26162
          0.27146 0.270951 0.269975 0.268639 0.267158 0.265886 0.272823 0.272439 0.271715 0.27075 0.269714 0.268844
          0.273758 0.273454 0.272886 0.272144 0.271362 0.270705 0.274233 0.273967 0.273474 0.272835 0.272168 0.271604
          0.260558 0.259311 0.25689 0.253523 0.249657 0.245685 0.260348 0.258872 0.255928 0.251729 0.247014 0.242842
          0.260173 0.258276 0.254253 0.248004 0.240805 0.236906 0.260497 0.25822 0.252953 0.243371 0.230237 0.228645
          0.261748 0.259643 0.254813 0.245885 0.231762 0.224231 0.263723 0.262084 0.258535 0.25256 0.243794 0.232797
          0.265993 0.264799 0.262333 0.258486 0.25331 0.247662 0.268237 0.267383 0.265679 0.26318 0.26011 0.257159
          0.270267 0.269655 0.268467 0.266805 0.264897 0.263191 0.271976 0.271532 0.270688 0.269545 0.268289 0.267199
          0.273301 0.272969 0.272347 0.271523 0.270638 0.269876 0.274202 0.273939 0.273449 0.272809 0.272129 0.27154
          0.274658 0.274427 0.273999 0.273443 0.272855 0.272341 0.26133 0.26015 0.257819 0.254457 0.250409 0.246332
          0.261205 0.259827 0.257003 0.25268 0.247186 0.243029 0.26115 0.259398 0.255461 0.248185 0.235527 0.234691
          0.261528 0.259378 0.253721 0.238142 0.205993 0.220537 0.262687 0.260597 0.25502 0.239162 0.205936 0.205324
          0.264539 0.262911 0.259077 0.251102 0.233814 0.206193 0.266711 0.265543 0.263021 0.258667 0.25143 0.239599
          0.268884 0.26807 0.266412 0.263869 0.260467 0.256716 0.270857 0.27029 0.269179 0.267599 0.265732 0.264001
          0.272516 0.272112 0.271344 0.270298 0.269134 0.268104 0.273796 0.273498 0.272939 0.272196 0.271392 0.270681
          0.274665 0.274429 0.27399 0.273414 0.272797 0.272246 0.275103 0.274896 0.274512 0.274011 0.273474 0.272992
          0.262297 0.261199 0.259011 0.255801 0.251808 0.247541 0.262246 0.260995 0.258424 0.254468 0.249304 0.243874
          0.262302 0.260774 0.257428 0.251641 0.242778 0.231806 0.262744 0.260951 0.256671 0.247756 0.229926 0.205375
          0.26383 0.262066 0.257812 0.248781 0.230381 0.205272 0.265517 0.264061 0.260699 0.253917 0.23805 0.205888
          0.267529 0.26645 0.264117 0.26005 0.253002 0.23985 0.269577 0.268816 0.26726 0.264844 0.261517 0.25755
          0.271457 0.270927 0.269886 0.268392 0.266595 0.264864 0.273046 0.272671 0.271955 0.270974 0.26987 0.268867
          0.274277 0.274001 0.273481 0.272789 0.27203 0.271346 0.275111 0.274893 0.274487 0.27395 0.273369 0.27284
          0.275533 0.275341 0.274985 0.274519 0.274013 0.27355 0.263329 0.262321 0.260304 0.257311 0.253489 0.249222
          0.263341 0.262222 0.25993 0.256386 0.251593 0.245952 0.263489 0.262184 0.259381 0.254618 0.246967 0.234772
          0.263985 0.262519 0.259196 0.252712 0.23787 0.206637 0.265009 0.263578 0.26036 0.254443 0.243991 0.226685
          0.266536 0.26531 0.262625 0.257891 0.249828 0.235978 0.268366 0.267418 0.265423 0.262177 0.257411 0.251261
          0.270262 0.269569 0.26817 0.266061 0.263334 0.260453 0.272029 0.271535 0.27057 0.269196 0.267568 0.266013
          0.273538 0.273185 0.272509 0.271584 0.270539 0.269577 0.274715 0.274453 0.27396 0.273299 0.27257 0.271902
          0.275516 0.275309 0.274922 0.274408 0.273847 0.273328 0.275921 0.275739 0.2754 0.274953 0.274465 0.27401
          0.26431 0.263387 0.261536 0.258776 0.255203 0.251089 0.264368 0.263368 0.261332 0.258204 0.253989 0.248955
          0.264581 0.26346 0.261105 0.257279 0.251624 0.244052 0.265105 0.26389 0.261262 0.256705 0.248943 0.235247
          0.266068 0.264879 0.262324 0.257998 0.251227 0.241132 0.267454 0.266408 0.264196 0.260579 0.255249 0.248174
          0.26912 0.268277 0.266543 0.263846 0.260192 0.255987 0.27087 0.270232 0.268956 0.267068 0.264704 0.262263
          0.272528 0.27206 0.271148 0.269856 0.268331 0.266856 0.273962 0.273621 0.272969 0.272074 0.271057 0.270105
          0.275089 0.274834 0.274354 0.273707 0.272988 0.272319 0.275861 0.275658 0.27528 0.274775 0.27422 0.273702
          0.276252 0.276074 0.275743 0.275303 0.27482 0.274367 0.265153 0.264297 0.262578 0.26 0.256614 0.252587
          0.265239 0.264326 0.262473 0.25963 0.255764 0.250927 0.265485 0.264486 0.262414 0.259114 0.25435 0.247857
          0.26601 0.264946 0.262695 0.25898 0.253284 0.244893 0.266909 0.265857 0.263627 0.259937 0.254278 0.245684
          0.26818 0.267228 0.265232 0.261998 0.257259 0.250825 0.269715 0.268924 0.267296 0.264762 0.261297 0.257157
          0.27135 0.270734 0.269497 0.267653 0.265301 0.262772 0.27292 0.27246 0.271558 0.270264 0.268708 0.267154
          0.274294 0.273956 0.273303 0.272398 0.271355 0.270356 0.275383 0.275129 0.274647 0.273993 0.273257 0.272566
          0.276132 0.27593 0.275551 0.275043 0.27448 0.273951 0.276513 0.276336 0.276004 0.275563 0.275076 0.274618
          0.265804 0.264994 0.263365 0.260909 0.257646 0.253662 0.265901 0.265044 0.263301 0.260614 0.256895 0.251961
          0.266156 0.265224 0.263294 0.260207 0.255637 0.248622 0.266663 0.265668 0.263566 0.260079 0.254618 0.245811
          0.267502 0.266499 0.264353 0.260702 0.254711 0.244442 0.268682 0.267751 0.26576 0.262395 0.256978 0.248206
          0.270123 0.26933 0.267665 0.264957 0.260943 0.25547 0.271679 0.271052 0.269769 0.267785 0.265093 0.261915
          0.273191 0.27272 0.27178 0.270398 0.26866 0.266825 0.274526 0.274179 0.273503 0.272548 0.271416 0.270302
          0.27559 0.27533 0.274835 0.274154 0.273379 0.27264 0.276324 0.27612 0.275733 0.275212 0.274629 0.27408
          0.276698 0.276519 0.276183 0.275734 0.275236 0.274767 0.266238 0.265456 0.263885 0.261518 0.258387 0.254634
          0.266337 0.265511 0.263832 0.261248 0.257701 0.253176 0.266587 0.265688 0.263823 0.260839 0.256462 0.250212
          0.26707 0.2661 0.264034 0.260557 0.254952 0.245554 0.267861 0.266859 0.264675 0.260779 0.253522 0.236681
          0.268977 0.268022 0.265924 0.262115 0.254824 0.237617 0.270357 0.26953 0.26774 0.264623 0.259313 0.250008
          0.271866 0.271208 0.269827 0.267575 0.264202 0.259506 0.273346 0.272852 0.271851 0.270321 0.268276 0.265905
          0.27466 0.274299 0.273588 0.27256 0.271298 0.270001 0.275711 0.275444 0.27493 0.274214 0.273384 0.272582
          0.276438 0.276229 0.275832 0.275294 0.274688 0.274114 0.276809 0.276627 0.276285 0.275826 0.275315 0.274833
          0.266444 0.265677 0.264135 0.261822 0.258787 0.255228 0.266543 0.265732 0.264085 0.261564 0.258154 0.253982
          0.266787 0.265903 0.264069 0.261157 0.256994 0.251506 0.267255 0.266292 0.264243 0.26082 0.255517 0.247779
          0.268017 0.26701 0.264805 0.260887 0.254075 0.242362 0.269099 0.268122 0.265941 0.261868 0.253778 0.235256
          0.270447 0.26959 0.26769 0.26418 0.257223 0.239747 0.271934 0.271251 0.269786 0.267284 0.263137 0.255903
          0.273401 0.27289 0.271838 0.270182 0.267834 0.264783 0.274707 0.274336 0.273598 0.272512 0.271138 0.269656
          0.275753 0.27548 0.274952 0.274211 0.273339 0.272482 0.276477 0.276265 0.275861 0.275311 0.274688 0.274096
          0.276847 0.276663 0.276316 0.27585 0.27533 0.27484
        </DataArray>
        <DataArray type="Float32" Name="process rank" NumberOfComponents="1" format="ascii">
          2 2 2 2 2 2 2 2 2 2 2 2
          2 2 2 2 2 2 2 2 2 2 2 2
          2 2 2 2 2 2 2 2 2 2 2 2
          2 2 2 2 2 2 2 2 2 2 2 2
          2 2 2 2 2 2 2 2 2 2 2 2
          2 2 2 2 2 2 2 2 2 2 2 2
          2 2 2 2 2 2 2 2 2 2 2 2
          2 2 2 2 2 2 2 2 2 2 2 2
          2 2 2 2 2 2 2 2 2 2 2 2
          2 2 2 2 2 2 2 2 2 2 2 2
          2 2 2 2 2 2 2 2 2 2 2 2
          2 2 2 2 2 2 2 2 2 2 2 2
          2 2 2 2 2 2 2 2 2 2 2 2
          2 2 2 2 2 2 2 2 2 2 2 2
          2 2 2 2 2 2 2 2 2 2 2 2
          2 2 2 2 2 2 2 2 2 2 2 2
          2 2 2 2 2 2 2 2 2 2 2 2
          2 2 2 2 2 2 2 2 2 2 2 2
          2 2 2 2 2 2 2 2 2 2 2 2
          2 2 2 2 2 2 2 2 2 2 2 2
          2 2 2 2 2 2 2 2 2 2 2 2
          2 2 2 2 2 2 2 2 2 2 2 2
          2 2 2 2 2 2 2 2 2 2 2 2
          2 2 2 2 2 2 2 2 2 2 2 2
          2 2 2 2 2 2 2 2 2 2 2 2
          2 2 2 2 2 2 2 2 2 2 2 2
          2 2 2 2 2 2 2 2 2 2 2 2
          2 2 2 2 2 2 2 2 2 2 2 2
          2 2 2 2 2 2 2 2 2 2 2 2
          2 2 2 2 2 2 2 2 2 2 2 2
          2 2 2 2 2 2 2 2 2 2 2 2
          2 2 2 2 2 2 2 2 2 2 2 2
          2 2 2 2 2 2 2 2 2 2 2 2
          2 2 2 2 2 2 2 2 2 2 2 2
          2 2 2 2 2 2 2 2 2 2 2 2
          2 2 2 2 2 2 2 2 2 2 2 2
          2 2 2 2 2 2 2 2 2 2 2 2
          2 2 2 2 2 2 2 2 2 2 2 2
          2 2 2 2 2 2 2 2 2 2 2 2
          2 2 2 2 2 2 2 2 2 2 2 2
          2 2 2 2 2 2 2 2 2 2 2 2
          2 2 2 2 2 2 2 2 2 2 2 2
          2 2 2 2 2 2 2 2 2 2 2 2
          2 2 2 2 2 2 2 2 2 2 2 2
          2 2 2 2 2 2 2 2 2 2 2 2
          2 2 2 2 2 2 2 2 2 2 2 2
          2 2 2 2 2 2 2 2 2 2 2 2
          2 2 2 2 2 2 2 2 2 2 2 2
          2 2 2 2 2 2 2 2 2 2 2 2
          2 2 2 2 2 2 2 2 2 2 2 2
          2 2 2 2 2 2 2 2 2 2 2 2
          2 2 2 2 2 2 2 2 2 2 2 2
          2 2 2 2 2 2 2 2 2 2 2 2
          2 2 2 2 2 2 2 2 2 2 2 2
          2 2 2 2 2 2 2 2 2 2 2 2
          2 2 2 2 2 2 2 2 2 2 2 2
          2 2 2 2 2 2 2 2 2 2 2 2
          2 2 2 2 2 2 2 2 2 2 2 2
          2 2 2 2 2 2 2 2 2 2 2 2
          2 2 2 2 2 2 2 2 2 2 2 2
          2 2 2 2 2 2 2 2 2 2 2 2
          2 2 2 2 2 2 2 2 2 2 2 2
          2 2 2 2 2 2 2 2 2 2 2 2
          2 2 2 2 2 2 2 2 2 2 2 2
          2 2 2 2 2 2 2 2 2 2 2 2
          2 2 2 2 2 2 2 2 2 2 2 2
          2 2 2 2 2 2 2 2 2 2 2 2
          2 2 2 2 2 2 2 2 2 2 2 2
          2 2 2 2 2 2 2 2 2 2 2 2
          2 2 2 2 2 2 2 2 2 2 2 2
          2 2 2 2 2 2 2 2 2 2 2 2
          2 2 2 2 2 2 2 2 2 2 2 2
          2 2 2 2 2 2 2 2 2 2 2 2
          2 2 2 2 2 2 2 2 2 2 2 2
          2 2 2 2 2 2 2 2 2 2 2 2
          2 2 2 2 2 2 2 2 2 2 2 2
          2 2 2 2 2 2 2 2 2 2 2 2
          2 2 2 2 2 2 2 2 2 2 2 2
          2 2 2 2 2 2 2 2 2 2 2 2
          2 2 2 2 2 2 2 2 2 2 2 2
          2 2 2 2 2 2 2 2 2 2 2 2
          2 2 2 2 2 2 2 2 2 2 2 2
          2 2 2 2 2 2 2 2 2 2 2 2
          2 2 2 2 2 2 2 2 2 2 2 2
          2 2 2 2 2 2
        </DataArray>
      </CellData>
      <Points>
        <DataArray type="Float32" Name="Coordinates" NumberOfComponents="3" format="ascii">
          -0.04 -0.04 -0.078 -0.0338462 -0.04 -0.078 -0.04 -0.0338462 -0.078 -0.0338462 -0.0338462 -0.078
          -0.04 -0.04 -0.072 -0.0338462 -0.04 -0.072 -0.04 -0.0338462 -0.072 -0.0338462 -0.0338462 -0.072
          -0.0276923 -0.04 -0.078 -0.0276923 -0.0338462 -0.078 -0.0276923 -0.04 -0.072 -0.0276923 -0.0338462 -0.072
          -0.0215385 -0.04 -0.078 -0.0215385 -0.0338462 -0.078 -0.0215385 -0.04 -0.072 -0.0215385 -0.0338462 -0.072
          -0.0153846 -0.04 -0.078 -0.0153846 -0.0338462 -0.078 -0.0153846 -0.04 -0.072 -0.0153846 -0.0338462 -0.072
          -0.00923077 -0.04 -0.078 -0.00923077 -0.0338462 -0.078 -0.00923077 -0.04 -0.072 -0.00923077 -0.0338462 -0.072
          -0.00307692 -0.04 -0.078 -0.00307692 -0.0338462 -0.078 -0.00307692 -0.04 -0.072 -0.00307692 -0.0338462 -0.072
          -0.04 -0.0276923 -0.078 -0.0338462 -0.0276923 -0.078 -0.04 -0.0276923 -0.072 -0.0338462 -0.0276923 -0.072
          -0.0276923 -0.0276923 -0.078 -0.0276923 -0.0276923 -0.072 -0.0215385 -0.0276923 -0.078 -0.0215385 -0.0276923 -0.072
          -0.0153846 -0.0276923 -0.078 -0.0153846 -0.0276923 -0.072 -0.00923077 -0.0276923 -0.078 -0.00923077 -0.0276923 -0.072
          -0.00307692 -0.0276923 -0.078 -0.00307692 -0.0276923 -0.072 -0.04 -0.0215385 -0.078 -0.0338462 -0.0215385 -0.078
          -0.04 -0.0215385 -0.072 -0.0338462 -0.0215385 -0.072 -0.0276923 -0.0215385 -0.078 -0.0276923 -0.0215385 -0.072
          -0.0215385 -0.0215385 -0.078 -0.0215385 -0.0215385 -0.072 -0.0153846 -0.0215385 -0.078 -0.0153846 -0.0215385 -0.072
          -0.00923077 -0.0215385 -0.078 -0.00923077 -0.0215385 -0.072 -0.00307692 -0.0215385 -0.078 -0.00307692 -0.0215385 -0.072
          -0.04 -0.0153846 -0.078 -0.0338462 -0.0153846 -0.078 -0.04 -0.0153846 -0.072 -0.0338462 -0.0153846 -0.072
          -0.0276923 -0.0153846 -0.078 -0.0276923 -0.0153846 -0.072 -0.0215385 -0.0153846 -0.078 -0.0215385 -0.0153846 -0.072
          -0.0153846 -0.0153846 -0.078 -0.0153846 -0.0153846 -0.072 -0.00923077 -0.0153846 -0.078 -0.00923077 -0.0153846 -0.072
          -0.00307692 -0.0153846 -0.078 -0.00307692 -0.0153846 -0.072 -0.04 -0.00923077 -0.078 -0.0338462 -0.00923077 -0.078
          -0.04 -0.00923077 -0.072 -0.0338462 -0.00923077 -0.072 -0.0276923 -0.00923077 -0.078 -0.0276923 -0.00923077 -0.072
          -0.0215385 -0.00923077 -0.078 -0.0215385 -0.00923077 -0.072 -0.0153846 -0.00923077 -0.078 -0.0153846 -0.00923077 -0.072
          -0.00923077 -0.00923077 -0.078 -0.00923077 -0.00923077 -0.072 -0.00307692 -0.00923077 -0.078 -0.00307692 -0.00923077 -0.072
          -0.04 -0.00307692 -0.078 -0.0338462 -0.00307692 -0.078 -0.04 -0.00307692 -0.072 -0.0338462 -0.00307692 -0.072
          -0.0276923 -0.00307692 -0.078 -0.0276923 -0.00307692 -0.072 -0.0215385 -0.00307692 -0.078 -0.0215385 -0.00307692 -0.072
          -0.0153846 -0.00307692 -0.078 -0.0153846 -0.00307692 -0.072 -0.00923077 -0.00307692 -0.078 -0.00923077 -0.00307692 -0.072
          -0.00307692 -0.00307692 -0.078 -0.00307692 -0.00307692 -0.072 -0.04 0.00307692 -0.078 -0.0338462 0.00307692 -0.078
          -0.04 0.00307692 -0.072 -0.0338462 0.00307692 -0.072 -0.0276923 0.00307692 -0.078 -0.0276923 0.00307692 -0.072
          -0.0215385 0.00307692 -0.078 -0.0215385 0.00307692 -0.072 -0.0153846 0.00307692 -0.078 -0.0153846 0.00307692 -0.072
          -0.00923077 0.00307692 -0.078 -0.00923077 0.00307692 -0.072 -0.00307692 0.00307692 -0.078 -0.00307692 0.00307692 -0.072
          -0.04 0.00923077 -0.078 -0.0338462 0.00923077 -0.078 -0.04 0.00923077 -0.072 -0.0338462 0.00923077 -0.072
          -0.0276923 0.00923077 -0.078 -0.0276923 0.00923077 -0.072 -0.0215385 0.00923077 -0.078 -0.0215385 0.00923077 -0.072
          -0.0153846 0.00923077 -0.078 -0.0153846 0.00923077 -0.072 -0.00923077 0.00923077 -0.078 -0.00923077 0.00923077 -0.072
          -0.00307692 0.00923077 -0.078 -0.00307692 0.00923077 -0.072 -0.04 0.0153846 -0.078 -0.0338462 0.0153846 -0.078
          -0.04 0.0153846 -0.072 -0.0338462 0.0153846 -0.072 -0.0276923 0.0153846 -0.078 -0.0276923 0.0153846 -0.072
          -0.0215385 0.0153846 -0.078 -0.0215385 0.0153846 -0.072 -0.0153846 0.0153846 -0.078 -0.0153846 0.0153846 -0.072
          -0.00923077 0.0153846 -0.078 -0.00923077 0.0153846 -0.072 -0.00307692 0.0153846 -0.078 -0.00307692 0.0153846 -0.072
          -0.04 0.0215385 -0.078 -0.0338462 0.0215385 -0.078 -0.04 0.0215385 -0.072 -0.0338462 0.0215385 -0.072
          -0.0276923 0.0215385 -0.078 -0.0276923 0.0215385 -0.072 -0.0215385 0.0215385 -0.078 -0.0215385 0.0215385 -0.072
          -0.0153846 0.0215385 -0.078 -0.0153846 0.0215385 -0.072 -0.00923077 0.0215385 -0.078 -0.00923077 0.0215385 -0.072
          -0.00307692 0.0215385 -0.078 -0.00307692 0.0215385 -0.072 -0.04 0.0276923 -0.078 -0.0338462 0.0276923 -0.078
          -0.04 0.0276923 -0.072 -0.0338462 0.0276923 -0.072 -0.0276923 0.0276923 -0.078 -0.0276923 0.0276923 -0.072
          -0.0215385 0.0276923 -0.078 -0.0215385 0.0276923 -0.072 -0.0153846 0.0276923 -0.078 -0.0153846 0.0276923 -0.072
          -0.00923077 0.0276923 -0.078 -0.00923077 0.0276923 -0.072 -0.00307692 0.0276923 -0.078 -0.00307692 0.0276923 -0.072
          -0.04 0.0338462 -0.078 -0.0338462 0.0338462 -0.078 -0.04 0.0338462 -0.072 -0.0338462 0.0338462 -0.072
          -0.0276923 0.0338462 -0.078 -0.0276923 0.0338462 -0.072 -0.0215385 0.0338462 -0.078 -0.0215385 0.0338462 -0.072
          -0.0153846 0.0338462 -0.078 -0.0153846 0.0338462 -0.072 -0.00923077 0.0338462 -0.078 -0.00923077 0.0338462 -0.072
          -0.00307692 0.0338462 -0.078 -0.00307692 0.0338462 -0.072 -0.04 0.04 -0.078 -0.0338462 0.04 -0.078
          -0.04 0.04 -0.072 -0.0338462 0.04 -0.072 -0.0276923 0.04 -0.078 -0.0276923 0.04 -0.072
          -0.0215385 0.04 -0.078 -0.0215385 0.04 -0.072 -0.0153846 0.04 -0.078 -0.0153846 0.04 -0.072
          -0.00923077 0.04 -0.078 -0.00923077 0.04 -0.072 -0.00307692 0.04 -0.078 -0.00307692 0.04 -0.072
          -0.04 -0.04 -0.066 -0.0338462 -0.04 -0.066 -0.04 -0.0338462 -0.066 -0.0338462 -0.0338462 -0.066
          -0.0276923 -0.04 -0.066 -0.0276923 -0.0338462 -0.066 -0.0215385 -0.04 -0.066 -0.0215385 -0.0338462 -0.066
          -0.0153846 -0.04 -0.066 -0.0153846 -0.0338462 -0.066 -0.00923077 -0.04 -0.066 -0.00923077 -0.0338462 -0.066
          -0.00307692 -0.04 -0.066 -0.00307692 -0.0338462 -0.066 -0.04 -0.0276923 -0.066 -0.0338462 -0.0276923 -0.066
          -0.0276923 -0.0276923 -0.066 -0.0215385 -0.0276923 -0.066 -0.0153846 -0.0276923 -0.066 -0.00923077 -0.0276923 -0.066
          -0.00307692 -0.0276923 -0.066 -0.04 -0.0215385 -0.066 -0.0338462 -0.0215385 -0.066 -0.0276923 -0.0215385 -0.066
          -0.0215385 -0.0215385 -0.066 -0.0153846 -0.0215385 -0.066 -0.00923077 -0.0215385 -0.066 -0.00307692 -0.0215385 -0.066
          -0.04 -0.0153846 -0.066 -0.0338462 -0.0153846 -0.066 -0.0276923 -0.0153846 -0.066 -0.0215385 -0.0153846 -0.066