<?xml version="1.0"?>
<VTKFile type="UnstructuredGrid" version="0.1" byte_order="LittleEndian">
  <UnstructuredGrid>
    <Piece NumberOfCells="936" NumberOfPoints="1274">
      <CellData Scalars="p (Pa)">
        <DataArray type="Float32" Name="p (Pa)" NumberOfComponents="1" format="ascii">
          14139.9 13935.6 13546.9 13014.4 12398.1 11773.6 14186.1 13979 13584.5 13042.7 12413.9 11775.3
          14286.9 14075.9 13673.1 13118 12470.9 11810.9 14454.5 14241.4 13833.8 13270.3 12610.8 11935.1
          14698.9 14488.2 14085 13527.2 12873.4 12202.7 15021.4 14819 14432.3 13898.6 13275.4 12638.4
          15410.7 15222.1 14862.9 14369.9 13798 13217.7 15843.4 15672.4 15348 14905.4 14396.2 13883.5
          16286.5 16134.5 15847.2 15457.7 15012.8 14567.3 16702.2 16568.2 16316 15975.6 15588.6 15202.2
          17053 16934.2 16711.1 16410.9 16070.5 15730.5 17306.5 17198.6 16996.1 16724.1 16415.9 16107.5
          17439.5 17337.1 17145.3 16887.7 16595.9 16303.4 13549.8 13321 12884.6 12284.8 11589.1 10885.5
          13592.4 13359.2 12913.6 12298.7 11582.1 10853.9 13688 13448.5 12989.2 12351.7 11602.7 10834.9
          13852.6 13608.7 13139.6 12485 11709.9 10907.2 14099.6 13857.2 13390.5 12738.1 11963.3 11157.3
          14432.6 14199.3 13751 13127 12390.1 11629 14840.6 14623.4 14208.2 13634.4 12964.7 12282.9
          15298.8 15102.7 14729.7 14219 13630.5 13040.1 15771.7 15598.7 15271.2 14826.8 14320.3 13817.7
          16218 16067 15782.6 15399.3 14965.8 14538.1 16596 16463.6 16215 15881.6 15506 15135.8
          16869.9 16750.7 16527.5 16228.8 15892.9 15561.1 17013.6 16901.3 16691.2 16410.3 16094.4 15781.7
          12417.1 12135.8 11596.8 10850.6 9980.17 9100.82 12451.3 12162 11605.3 10829.6 9916.38 8984.14
          12535 12233.4 11649.7 10827.6 9844.37 8820.6 12691.9 12380.5 11774.7 10912.8 9865.15 8748.2
          12943.2 12630.9 12022.1 11153.2 10090 8941.53 13297 12995.4 12409.5 11578.6 10572.9 9504.66
          13743.1 13462.7 12921.6 12163.8 11265.4 10340.2 14254.2 14002.4 13520.1 12854.2 12081.9 11310.7
          14789.6 14569.8 14152.1 13583.3 12936 12304 15300.2 15111.5 14755.6 14276.4 13738.5 13219.4
          15735.7 15573.4 15269.1 14862.5 14409.6 13973.7 16052.5 15909.2 15641.2 15284.7 14888.9 14507.2
          16219.2 16085.6 15836.2 15505.2 15137.8 14782.6 10723.4 10355.2 9643.8 8647.66 7472.82 6282.36
          10742.4 10358.9 9613.15 8557.1 7290.98 5981.89 10804 10396.7 9596.73 8443.09 7020.2 5490.27
          10945.4 10517.6 9669.83 8426.3 6846.26 5061.6 11200.9 10767 9905.29 8634.12 6998.01 5091.9
          11585.6 11164.7 10332.9 9118.96 7587.54 5868.05 12090.6 11698.9 10931.8 9832.8 8493.45 7078.9
          12685.3 12334.5 11654.6 10699.5 9574.57 8452.86 13321.1 13018.3 12438 11639.2 10726.9 9854.06
          13936.3 13681.5 13198.7 12545.8 11817.2 11135.2 14465.9 14252.2 13851 13315.6 12726.4 12178.3
          14853 14668.8 14324.7 13869.5 13371.6 12907.1 15057.1 14887.9 14573.1 14158 13704.7 13280.3
          8449.03 7950.06 6974.98 5586.56 3920.17 2217.18 8442.98 7915.52 6874.38 5364.99 3504.03 1535.68
          8467.51 7894.97 6747.16 5034.09 2820.87 314.405 8581.21 7968.24 6722.97 4813.78 2220.67 -995.122
          8838.23 8210.08 6930.21 4953.41 2211.27 -1415.55 9263.71 8650.76 7411.12 5528.32 3007.49 -84.4386
          9849.8 9276.25 8128.68 6426.88 4261.32 1877.42 10562.8 10048 9029.4 7552.18 5751.77 3945.33
          11345 10904.6 10046.2 8836.21 7429.01 6111.15 12115.3 11752.5 11057.2 10104.1 9037.3 8074.68
          12784.9 12489.4 11931.2 11182.9 10365.7 9636.34 13276.6 13029.1 12566 11954.3 11294.2 10703.1
          13536.2 13313.1 12898.1 12353.5 11768.3 11241.1 5582.43 4898.73 3542.8 1567.92 -862.242 -3380.48
          5537.96 4802.98 3323.09 1107.23 -1735.79 -4840.66 5504.94 4687.53 3002.69 364.435 -3279.28 -7712.96
          5574.01 4681.44 2805.84 -253.196 -4829.15 -11321.6 5828.66 4906.04 2964.26 -218.691 -5096.77 -12843.2
          6304.86 5398.39 3510.3 492.67 -3867.94 -9874.12 6995.33 6137.09 4366.62 1604.19 -2151.7 -6538.17
          7865.81 7087.48 5494.27 3046.05 -177.456 -3555.63 8850.17 8188.38 6860.05 4898.04 2496.44 256.409
          9838.82 9306 8262.77 6789.03 5099.42 3625.69 10706.5 10286.4 9482.32 8387.74 7187.24 6163.1
          11345.5 11004.8 10363.7 9512.32 8600.58 7820.19 11682.8 11382.4 10821.9 10086.7 9306.48 8632.86
          2133.6 1205.25 -668.619 -3476.78 -7051.3 -10831.3 2034.81 1018.48 -1079.28 -4357.57 -8808.68 -13891.3
          1919.94 759.461 -1720.99 -5876.14 -12224.9 -20813.1 1925.47 632.319 -2210.88 -7285.4 -16145.6 -31840.2
          2176.31 833.243 -2106.19 -7291.26 -16267.5 -34082.6 2716.28 1386.66 -1482.7 -6360.82 -14068.8 -26051.1
          3536.03 2252.71 -508.014 -5148.8 -12166.5 -21231.4 4606.64 3419.56 857.8 -3501.86 -10315.1 -19399
          5859.11 4853.78 2740.08 -650.988 -5313.69 -10054.8 7142.75 6352.94 4753.45 2366.15 -549.229 -3094.57
          8277.58 7676.52 6501.26 4850.24 2991.31 1459.71 9113.59 8643.4 7747.85 6540.91 5242.77 4179.27
          9554.14 9149.15 8388.57 7384.69 6325.27 5448.93 -1852.66 -3078.42 -5597.3 -9492.94 -14668.9 -20330.2
          -2020.36 -3385.84 -6281.11 -11045.4 -18054.1 -26735.8 -2238.56 -3839.06 -7410.54 -13967.9 -25799.2 -45940.2
          -2309.64 -4130.23 -8372.92 -17076.7 -37749.1 -104683 -2052.72 -3943.59 -8265.66 -16586.1 -33226.9 -71675.2
          -1424.6 -3311.84 -7546.31 -15274.5 -28791.9 -51763.7 -442.864 -2311.12 -6547.7 -14451.1 -28706.6 -51882
          875.344 -901.717 -5034.33 -13356.4 -32081 -87235.3 2468.28 966.729 -2401.42 -8548.21 -19103.1 -33946.1
          4129.51 2979.37 538.544 -3426.58 -8903.3 -14218.7 5603.29 4759.3 3058.6 547.345 -2453.27 -4941.08
          6685.66 6049.16 4815.5 3109.58 1234.53 -256.337 7253.79 6718.64 5703.12 4345.13 2905.69 1758.26
          -6294.21 -7842.92 -11061.8 -16156.7 -23203.2 -31328.8 -6538.56 -8283.25 -12049.4 -18511 -28886.5 -43942.5
          -6867.27 -8949.91 -13752.9 -23412.1 -45487.5 -112271 -7007.17 -9416.91 -15346 -30030.1 -96463.1 -993718
          -6709.02 -9211.54 -15137 -27624.2 -58803.4 -175505 -5938.54 -8460.33 -14309.3 -25740.7 -48351.6 -94595.2
          -4733.42 -7292.19 -13402.7 -26214.5 -55747.8 -136836 -3104.51 -5609.42 -11942.6 -28013.2 -98591.1 -1.02036e+06
          -1102.62 -3224.18 -8353.61 -19452.5 -46671.5 -126374 1004.26 -585.684 -4148.36 -10608.9 -21466.3 -35939.8
          2869.98 1740.92 -615.209 -4326.13 -9215.43 -13674.6 4231.46 3407.61 1777.83 -553.601 -3222.21 -5348.73
          4942.06 4264.33 2962.21 1189.38 -717.167 -2201.79 -11093 -12961.4 -16829.4 -22912.4 -31288.2 -41106.4
          -11418.7 -13524.6 -18021.3 -25548.3 -37107.2 -53071.2 -11851.2 -14363 -20011.3 -30589 -50776.3 -91447.5
          -12018.7 -14921 -21759.2 -36143.5 -72363.2 -203717 -11598 -14651.7 -21780.6 -36103.3 -67156.1 -146399
          -10564.6 -13676.7 -20940.6 -35268 -63846.5 -122237 -9004.61 -12190.1 -19935.9 -36706.8 -77001.4 -193843
          -6958.95 -10107 -18290 -40028.5 -135600 -1.12837e+06 -4494.73 -7202.82 -14154.2 -32048.8 -107415 -987809
          -1918.09 -3924.33 -8634.03 -18171.4 -38993.7 -93771.7 343.603 -1049.12 -4044.02 -9063.63 -16513.8 -25000.5
          1978.88 985.99 -1012.9 -3965.24 -7511.05 -10461.2 2826.77 2022.4 460.423 -1702.56 -4071.77 -5905.72
          -16161.1 -18375.7 -22901.8 -29848 -39144.5 -50102.8 -16602.3 -19118.3 -24382.3 -32802.4 -44877.1 -61181.9
          -17174.5 -20210.3 -26836.4 -38299.5 -57209.9 -92588.3 -17332.4 -20859.5 -28903.3 -44156.2 -74710.3 -178365
          -16607.8 -20268.9 -28672.9 -44857.5 -78647.1 -192391 -15059.5 -18710.5 -27197.9 -43831.3 -77488.3 -156477
          -12907.5 -16554.8 -25388.2 -44236.2 -88101.5 -222267 -10282.3 -13813.4 -22855.2 -44974.7 -111343 -344556
          -7300.5 -10339.4 -18209.3 -38873.4 -128142 -1.11909e+06 -4283.37 -6523.26 -11843.7 -22883.4 -47969.7 -115706
          -1686.79 -3229.01 -6576.65 -12290.6 -21021 -31302.9 167.433 -923.308 -3133.13 -6434.07 -10461.2 -13846.8
          1122.12 242.912 -1471.82 -3863.01 -6502.52 -8542.96 -21361.1 -24025.8 -29399.9 -37363.2 -47401 -59008
          -22008.4 -25138.3 -31605.9 -41413.5 -53698.5 -69088.2 -22852.4 -26837.1 -35545.2 -49690.7 -66892.1 -93220.5
          -23012.7 -27800.5 -39086.4 -60150.3 -84161.5 -135185 -21667.5 -26277.6 -36911.8 -56534.1 -89046.6 -163881
          -19201.2 -23429.1 -33248 -52393.8 -91997.2 -216371 -16141.2 -20093.9 -29654.8 -50318.7 -101531 -274566
          -12760.7 -16415.4 -25792 -50045.8 -151511 -1.13131e+06 -9220.26 -12262.2 -20020 -39888.8 -124196 -1.1086e+06
          -5835.46 -8052.37 -13241.8 -23735.8 -46807.4 -108676 -3012.98 -4540.34 -7822.13 -13325 -21533.7 -31029.4
          -1029.86 -2116.22 -4304.17 -7540.48 -11441.8 -14712.3 -16.4714 -896.716 -2607.79 -4982.18 -7591.34 -9617.41
        </DataArray>
        <DataArray type="Float32" Name="saturation" NumberOfComponents="1" format="ascii">
          0.282327 0.282191 0.281932 0.28158 0.281178 0.280775 0.282358 0.28222 0.281957 0.281599 0.281188 0.280776
          0.282426 0.282285 0.282016 0.281649 0.281225 0.280799 0.282539 0.282396 0.282123 0.281749 0.281316 0.280879
          0.282704 0.282562 0.282291 0.281919 0.281488 0.281051 0.282923 0.282786 0.282524 0.282166 0.281752 0.281334
          0.28319 0.28306 0.282816 0.282482 0.282099 0.281714 0.283488 0.28337 0.283147 0.282844 0.2825 0.282156
          0.283796 0.28369 0.283491 0.283222 0.282917 0.282615 0.284087 0.283993 0.283817 0.28358 0.283312 0.283047
          0.284335 0.284251 0.284094 0.283883 0.283646 0.28341 0.284515 0.284438 0.284295 0.284103 0.283887 0.283671
          0.28461 0.284537 0.284401 0.284218 0.284013 0.283808 0.281934 0.281782 0.281495 0.281104 0.280656 0.280209
          0.281962 0.281808 0.281514 0.281113 0.280652 0.280189 0.282026 0.281867 0.281564 0.281148 0.280665 0.280177
          0.282135 0.281973 0.281663 0.281234 0.280734 0.280223 0.2823 0.282138 0.281828 0.281399 0.280897 0.280381
          0.282524 0.282367 0.282068 0.281655 0.281173 0.280682 0.2828 0.282653 0.282373 0.28199 0.281548 0.281103
          0.283113 0.282979 0.282725 0.28238 0.281987 0.281597 0.283438 0.283319 0.283094 0.282791 0.282449 0.282112
          0.283748 0.283643 0.283446 0.283182 0.282886 0.282595 0.284013 0.28392 0.283746 0.283514 0.283255 0.283001
          0.284206 0.284122 0.283965 0.283756 0.283522 0.283293 0.284307 0.284228 0.28408 0.283883 0.283662 0.283445
          0.28119 0.281008 0.280661 0.280187 0.279641 0.279099 0.281213 0.281025 0.280667 0.280174 0.279602 0.279027
          0.281267 0.281071 0.280695 0.280172 0.279557 0.278928 0.281369 0.281167 0.280775 0.280226 0.27957 0.278884
          0.281534 0.281329 0.280935 0.280379 0.27971 0.279001 0.281767 0.281568 0.281185 0.28065 0.280012 0.279347
          0.282062 0.281876 0.28152 0.281026 0.28045 0.279866 0.282404 0.282235 0.281914 0.281475 0.280973 0.280479
          0.282766 0.282617 0.282336 0.281956 0.281529 0.281117 0.283114 0.282985 0.282743 0.282419 0.282059 0.281715
          0.283414 0.283302 0.283093 0.282815 0.282509 0.282216 0.283633 0.283534 0.283348 0.283103 0.282833 0.282575
          0.283749 0.283656 0.283483 0.283255 0.283003 0.282761 0.280107 0.279875 0.279433 0.278822 0.278116 0.277414
          0.280119 0.279878 0.279414 0.278767 0.278008 0.27724 0.280157 0.279901 0.279404 0.278698 0.277848 0.276956
          0.280247 0.279977 0.279449 0.278688 0.277745 0.27671 0.280409 0.280134 0.279595 0.278814 0.277834 0.276727
          0.280654 0.280386 0.279861 0.27911 0.278184 0.277174 0.280979 0.280727 0.280238 0.27955 0.278729 0.277882
          0.281365 0.281137 0.280698 0.280092 0.27939 0.278704 0.281783 0.281583 0.281204 0.280688 0.280109 0.279563
          0.282191 0.282021 0.281702 0.281274 0.280803 0.280367 0.282547 0.282403 0.282134 0.281779 0.281392 0.281036
          0.282809 0.282684 0.282452 0.282147 0.281816 0.28151 0.282948 0.282833 0.282619 0.28234 0.282037 0.281756
          0.278702 0.278401 0.277821 0.277011 0.276064 0.275122 0.278698 0.27838 0.277762 0.276884 0.275831 0.274753
          0.278713 0.278368 0.277687 0.276694 0.275453 0.274101 0.278782 0.278412 0.277672 0.276569 0.275124 0.273416
          0.278938 0.278558 0.277794 0.276648 0.275119 0.273199 0.279199 0.278824 0.278079 0.276977 0.275556 0.273891
          0.27956 0.279206 0.278509 0.277499 0.276256 0.274938 0.280006 0.279684 0.279055 0.278163 0.277106 0.276078
          0.280501 0.280221 0.279682 0.278937 0.27809 0.277315 0.280995 0.280761 0.280318 0.279719 0.27906 0.278476
          0.28143 0.281237 0.280876 0.280397 0.279882 0.279428 0.281753 0.28159 0.281287 0.280891 0.280468 0.280094
          0.281925 0.281777 0.281504 0.281149 0.280771 0.280434 0.277009 0.276617 0.275853 0.27477 0.273485 0.272204
          0.276983 0.276562 0.275731 0.274523 0.273035 0.271484 0.276964 0.276497 0.275553 0.274128 0.272255 0.270113
          0.277004 0.276493 0.275445 0.273802 0.271489 0.268471 0.277151 0.276621 0.275532 0.273821 0.271359 0.267803
          0.277428 0.276903 0.275835 0.274196 0.271962 0.269119 0.277833 0.27733 0.276315 0.27479 0.272823 0.270666
          0.278351 0.277887 0.276958 0.275577 0.273842 0.272117 0.278946 0.278544 0.277753 0.276616 0.275275 0.274071
          0.279554 0.279225 0.278589 0.277711 0.276731 0.275899 0.280096 0.279832 0.279333 0.278665 0.277946 0.277345
          0.280501 0.280284 0.279881 0.279352 0.278794 0.278323 0.280716 0.280524 0.280169 0.279708 0.279225 0.278813
          0.275077 0.274575 0.273586 0.272156 0.270423 0.268689 0.275023 0.274475 0.273373 0.27172 0.269605 0.267352
          0.274961 0.274337 0.273042 0.270983 0.268073 0.26453 0.274964 0.27427 0.272793 0.270313 0.266404 0.26053
          0.2751 0.274377 0.272846 0.27031 0.266353 0.259781 0.275396 0.274673 0.273165 0.270751 0.267276 0.26256
          0.275849 0.275142 0.273669 0.271334 0.268098 0.264368 0.276451 0.275784 0.27439 0.272144 0.26892 0.265085
          0.277169 0.276591 0.275409 0.273595 0.271254 0.269037 0.27792 0.277456 0.276534 0.275204 0.273648 0.272347
          0.278598 0.278237 0.277542 0.276589 0.275547 0.274712 0.279107 0.27882 0.27828 0.277566 0.276813 0.276209
          0.279377 0.279128 0.278665 0.278063 0.27744 0.276932 0.272975 0.272355 0.271117 0.269292 0.267022 0.264718
          0.27289 0.272201 0.270789 0.268593 0.265623 0.262312 0.272779 0.271976 0.270254 0.267319 0.262652 0.256131
          0.272743 0.271832 0.269806 0.26602 0.258599 0.243271 0.272873 0.271924 0.269856 0.266222 0.260065 0.249632
          0.273195 0.272238 0.270191 0.266767 0.261581 0.254507 0.273703 0.272742 0.270662 0.267114 0.261611 0.254476
          0.274399 0.273465 0.271389 0.267582 0.260448 0.24641 0.27526 0.274448 0.272696 0.269725 0.265203 0.259826
          0.276181 0.275541 0.27422 0.272181 0.269561 0.267213 0.277021 0.276538 0.275584 0.274225 0.27267 0.271435
          0.277651 0.277279 0.276569 0.275612 0.274591 0.273801 0.277986 0.27767 0.277078 0.276303 0.2755 0.274873
          0.270783 0.270052 0.268586 0.266399 0.263615 0.260703 0.270666 0.269847 0.26815 0.265439 0.261548 0.256713
          0.27051 0.26954 0.267411 0.263536 0.256262 0.242035 0.270444 0.269327 0.266737 0.261149 0.244694 0.206988
          0.270585 0.26942 0.266824 0.261994 0.252672 0.233932 0.270953 0.269765 0.267174 0.262673 0.255447 0.245031
          0.271536 0.27031 0.267562 0.262501 0.253453 0.238477 0.272342 0.271111 0.268197 0.261856 0.244317 0.206688
          0.273361 0.272282 0.269815 0.265064 0.255922 0.239917 0.274468 0.273629 0.271823 0.268788 0.264277 0.259176
          0.27548 0.274864 0.273613 0.271736 0.269418 0.267445 0.276239 0.275778 0.274884 0.273645 0.272283 0.271237
          0.276642 0.276257 0.275531 0.274567 0.27356 0.272797 0.268572 0.267752 0.266122 0.263724 0.260717 0.25756
          0.268428 0.267509 0.265636 0.262744 0.258802 0.254156 0.268237 0.267151 0.264843 0.260956 0.254776 0.24561
          0.268163 0.266915 0.264164 0.259111 0.24948 0.231212 0.268348 0.267029 0.264156 0.259123 0.250657 0.237248
          0.268808 0.267444 0.26448 0.259393 0.251436 0.240516 0.269515 0.268088 0.264873 0.25893 0.248478 0.232117
          0.270467 0.269014 0.265528 0.257889 0.238642 0.205579 0.271653 0.270352 0.26724 0.260459 0.242817 0.207056
          0.272942 0.271934 0.269685 0.265576 0.258209 0.245181 0.274117 0.273388 0.271875 0.269488 0.266251 0.262945
          0.274993 0.274458 0.273407 0.271914 0.270207 0.268854 0.275456 0.275016 0.274178 0.273052 0.271861 0.270968
          0.266397 0.265494 0.263728 0.261212 0.258162 0.25496 0.266215 0.265197 0.263173 0.260206 0.256439 0.252082
          0.26598 0.264765 0.262276 0.258426 0.253076 0.245399 0.265916 0.264512 0.261542 0.25665 0.248968 0.233636
          0.266213 0.264742 0.261623 0.256445 0.248133 0.232254 0.266857 0.265359 0.262146 0.256745 0.248376 0.236032
          0.267776 0.266234 0.262802 0.256626 0.246243 0.229635 0.268935 0.267385 0.263746 0.256411 0.242183 0.221986
          0.270306 0.268909 0.265561 0.258247 0.239666 0.205668 0.271757 0.270673 0.26824 0.263735 0.255554 0.241499
          0.27306 0.27228 0.270648 0.268044 0.264449 0.260712 0.274024 0.273453 0.272328 0.270716 0.268854 0.267371
          0.274531 0.274063 0.27317 0.271964 0.270683 0.269727 0.264318 0.263306 0.261368 0.258721 0.255714 0.252621
          0.264069 0.262894 0.260609 0.257467 0.25399 0.250213 0.263747 0.262276 0.259304 0.255074 0.250718 0.245282
          0.263686 0.261931 0.25818 0.252336 0.247012 0.238698 0.264199 0.262478 0.258865 0.25325 0.246063 0.235186
          0.265164 0.26353 0.260057 0.254338 0.245508 0.23012 0.266405 0.264811 0.261279 0.254901 0.243805 0.225875
          0.267839 0.266292 0.262655 0.254976 0.236621 0.205551 0.269416 0.268056 0.26484 0.257932 0.24023 0.20577
          0.271002 0.269955 0.267631 0.263414 0.255883 0.242612 0.272388 0.271631 0.270062 0.267595 0.264251 0.260806
          0.273398 0.272841 0.271747 0.270193 0.268417 0.267003 0.273927 0.273467 0.272592 0.271415 0.27017 0.269235
        </DataArray>
        <DataArray type="Float32" Name="process rank" NumberOfComponents="1" format="ascii">
          0 0 0 0 0 0 0 0 0 0 0 0
          0 0 0 0 0 0 0 0 0 0 0 0
          0 0 0 0 0 0 0 0 0 0 0 0
          0 0 0 0 0 0 0 0 0 0 0 0
          0 0 0 0 0 0 0 0 0 0 0 0
          0 0 0 0 0 0 0 0 0 0 0 0
          0 0 0 0 0 0 0 0 0 0 0 0
          0 0 0 0 0 0 0 0 0 0 0 0
          0 0 0 0 0 0 0 0 0 0 0 0
          0 0 0 0 0 0 0 0 0 0 0 0
          0 0 0 0 0 0 0 0 0 0 0 0
          0 0 0 0 0 0 0 0 0 0 0 0
          0 0 0 0 0 0 0 0 0 0 0 0
          0 0 0 0 0 0 0 0 0 0 0 0
          0 0 0 0 0 0 0 0 0 0 0 0
          0 0 0 0 0 0 0 0 0 0 0 0
          0 0 0 0 0 0 0 0 0 0 0 0
          0 0 0 0 0 0 0 0 0 0 0 0
          0 0 0 0 0 0 0 0 0 0 0 0
          0 0 0 0 0 0 0 0 0 0 0 0
          0 0 0 0 0 0 0 0 0 0 0 0
          0 0 0 0 0 0 0 0 0 0 0 0
          0 0 0 0 0 0 0 0 0 0 0 0
          0 0 0 0 0 0 0 0 0 0 0 0
          0 0 0 0 0 0 0 0 0 0 0 0
          0 0 0 0 0 0 0 0 0 0 0 0
          0 0 0 0 0 0 0 0 0 0 0 0
          0 0 0 0 0 0 0 0 0 0 0 0
          0 0 0 0 0 0 0 0 0 0 0 0
          0 0 0 0 0 0 0 0 0 0 0 0
          0 0 0 0 0 0 0 0 0 0 0 0
          0 0 0 0 0 0 0 0 0 0 0 0
          0 0 0 0 0 0 0 0 0 0 0 0
          0 0 0 0 0 0 0 0 0 0 0 0
          0 0 0 0 0 0 0 0 0 0 0 0
          0 0 0 0 0 0 0 0 0 0 0 0
          0 0 0 0 0 0 0 0 0 0 0 0
          0 0 0 0 0 0 0 0 0 0 0 0
          0 0 0 0 0 0 0 0 0 0 0 0
          0 0 0 0 0 0 0 0 0 0 0 0
          0 0 0 0 0 0 0 0 0 0 0 0
          0 0 0 0 0 0 0 0 0 0 0 0
          0 0 0 0 0 0 0 0 0 0 0 0
          0 0 0 0 0 0 0 0 0 0 0 0
          0 0 0 0 0 0 0 0 0 0 0 0
          0 0 0 0 0 0 0 0 0 0 0 0
          0 0 0 0 0 0 0 0 0 0 0 0
          0 0 0 0 0 0 0 0 0 0 0 0
          0 0 0 0 0 0 0 0 0 0 0 0
          0 0 0 0 0 0 0 0 0 0 0 0
          0 0 0 0 0 0 0 0 0 0 0 0
          0 0 0 0 0 0 0 0 0 0 0 0
          0 0 0 0 0 0 0 0 0 0 0 0
          0 0 0 0 0 0 0 0 0 0 0 0
          0 0 0 0 0 0 0 0 0 0 0 0
          0 0 0 0 0 0 0 0 0 0 0 0
          0 0 0 0 0 0 0 0 0 0 0 0
          0 0 0 0 0 0 0 0 0 0 0 0
          0 0 0 0 0 0 0 0 0 0 0 0
          0 0 0 0 0 0 0 0 0 0 0 0
          0 0 0 0 0 0 0 0 0 0 0 0
          0 0 0 0 0 0 0 0 0 0 0 0
          0 0 0 0 0 0 0 0 0 0 0 0
          0 0 0 0 0 0 0 0 0 0 0 0
          0 0 0 0 0 0 0 0 0 0 0 0
          0 0 0 0 0 0 0 0 0 0 0 0
          0 0 0 0 0 0 0 0 0 0 0 0
          0 0 0 0 0 0 0 0 0 0 0 0
          0 0 0 0 0 0 0 0 0 0 0 0
          0 0 0 0 0 0 0 0 0 0 0 0
          0 0 0 0 0 0 0 0 0 0 0 0
          0 0 0 0 0 0 0 0 0 0 0 0
          0 0 0 0 0 0 0 0 0 0 0 0
          0 0 0 0 0 0 0 0 0 0 0 0
          0 0 0 0 0 0 0 0 0 0 0 0
          0 0 0 0 0 0 0 0 0 0 0 0
          0 0 0 0 0 0 0 0 0 0 0 0
          0 0 0 0 0 0 0 0 0 0 0 0
        </DataArray>
      </CellData>
      <Points>
        <DataArray type="Float32" Name="Coordinates" NumberOfComponents="3" format="ascii">
          -0.04 -0.04 -0.15 -0.0338462 -0.04 -0.15 -0.04 -0.0338462 -0.15 -0.0338462 -0.0338462 -0.15
          -0.04 -0.04 -0.144 -0.0338462 -0.04 -0.144 -0.04 -0.0338462 -0.144 -0.0338462 -0.0338462 -0.144
          -0.0276923 -0.04 -0.15 -0.0276923 -0.0338462 -0.15 -0.0276923 -0.04 -0.144 -0.0276923 -0.0338462 -0.144
          -0.0215385 -0.04 -0.15 -0.0215385 -0.0338462 -0.15 -0.0215385 -0.04 -0.144 -0.0215385 -0.0338462 -0.144
          -0.0153846 -0.04 -0.15 -0.0153846 -0.0338462 -0.15 -0.0153846 -0.04 -0.144 -0.0153846 -0.0338462 -0.144
          -0.00923077 -0.04 -0.15 -0.00923077 -0.0338462 -0.15 -0.00923077 -0.04 -0.144 -0.00923077 -0.0338462 -0.144
          -0.00307692 -0.04 -0.15 -0.00307692 -0.0338462 -0.15 -0.00307692 -0.04 -0.144 -0.00307692 -0.0338462 -0.144
          -0.04 -0.0276923 -0.15 -0.0338462 -0.0276923 -0.15 -0.04 -0.0276923 -0.144 -0.0338462 -0.0276923 -0.144
          -0.0276923 -0.0276923 -0.15 -0.0276923 -0.0276923 -0.144 -0.0215385 -0.0276923 -0.15 -0.0215385 -0.0276923 -0.144
          -0.0153846 -0.0276923 -0.15 -0.0153846 -0.0276923 -0.144 -0.00923077 -0.0276923 -0.15 -0.00923077 -0.0276923 -0.144
          -0.00307692 -0.0276923 -0.15 -0.00307692 -0.0276923 -0.144 -0.04 -0.0215385 -0.15 -0.0338462 -0.0215385 -0.15
          -0.04 -0.0215385 -0.144 -0.0338462 -0.0215385 -0.144 -0.0276923 -0.0215385 -0.15 -0.0276923 -0.0215385 -0.144
          -0.0215385 -0.0215385 -0.15 -0.0215385 -0.0215385 -0.144 -0.0153846 -0.0215385 -0.15 -0.0153846 -0.0215385 -0.144
          -0.00923077 -0.0215385 -0.15 -0.00923077 -0.0215385 -0.144 -0.00307692 -0.0215385 -0.15 -0.00307692 -0.0215385 -0.144
          -0.04 -0.0153846 -0.15 -0.0338462 -0.0153846 -0.15 -0.04 -0.0153846 -0.144 -0.0338462 -0.0153846 -0.144
          -0.0276923 -0.0153846 -0.15 -0.0276923 -0.0153846 -0.144 -0.0215385 -0.0153846 -0.15 -0.0215385 -0.0153846 -0.144
          -0.0153846 -0.0153846 -0.15 -0.0153846 -0.0153846 -0.144 -0.00923077 -0.0153846 -0.15 -0.00923077 -0.0153846 -0.144
          -0.00307692 -0.0153846 -0.15 -0.00307692 -0.0153846 -0.144 -0.04 -0.00923077 -0.15 -0.0338462 -0.00923077 -0.15
          -0.04 -0.00923077 -0.144 -0.0338462 -0.00923077 -0.144 -0.0276923 -0.00923077 -0.15 -0.0276923 -0.00923077 -0.144
          -0.0215385 -0.00923077 -0.15 -0.0215385 -0.00923077 -0.144 -0.0153846 -0.00923077 -0.15 -0.0153846 -0.00923077 -0.144
          -0.00923077 -0.00923077 -0.15 -0.00923077 -0.00923077 -0.144 -0.00307692 -0.00923077 -0.15 -0.00307692 -0.00923077 -0.144
          -0.04 -0.00307692 -0.15 -0.0338462 -0.00307692 -0.15 -0.04 -0.00307692 -0.144 -0.0338462 -0.00307692 -0.144
          -0.0276923 -0.00307692 -0.15 -0.0276923 -0.00307692 -0.144 -0.0215385 -0.00307692 -0.15 -0.0215385 -0.00307692 -0.144
          -0.0153846 -0.00307692 -0.15 -0.0153846 -0.00307692 -0.144 -0.00923077 -0.00307692 -0.15 -0.00923077 -0.00307692 -0.144
          -0.00307692 -0.00307692 -0.15 -0.00307692 -0.00307692 -0.144 -0.04 0.00307692 -0.15 -0.0338462 0.00307692 -0.15
          -0.04 0.00307692 -0.144 -0.0338462 0.00307692 -0.144 -0.0276923 0.00307692 -0.15 -0.0276923 0.00307692 -0.144
          -0.0215385 0.00307692 -0.15 -0.0215385 0.00307692 -0.144 -0.0153846 0.00307692 -0.15 -0.0153846 0.00307692 -0.144
          -0.00923077 0.00307692 -0.15 -0.00923077 0.00307692 -0.144 -0.00307692 0.00307692 -0.15 -0.00307692 0.00307692 -0.144
          -0.04 0.00923077 -0.15 -0.0338462 0.00923077 -0.15 -0.04 0.00923077 -0.144 -0.0338462 0.00923077 -0.144
          -0.0276923 0.00923077 -0.15 -0.0276923 0.00923077 -0.144 -0.0215385 0.00923077 -0.15 -0.0215385 0.00923077 -0.144
          -0.0153846 0.00923077 -0.15 -0.0153846 0.00923077 -0.144 -0.00923077 0.00923077 -0.15 -0.00923077 0.00923077 -0.144
          -0.00307692 0.00923077 -0.15 -0.00307692 0.00923077 -0.144 -0.04 0.0153846 -0.15 -0.0338462 0.0153846 -0.15
          -0.04 0.0153846 -0.144 -0.0338462 0.0153846 -0.144 -0.0276923 0.0153846 -0.15 -0.0276923 0.0153846 -0.144
          -0.0215385 0.0153846 -0.15 -0.0215385 0.0153846 -0.144 -0.0153846 0.0153846 -0.15 -0.0153846 0.0153846 -0.144
          -0.00923077 0.0153846 -0.15 -0.00923077 0.0153846 -0.144 -0.00307692 0.0153846 -0.15 -0.00307692 0.0153846 -0.144
          -0.04 0.0215385 -0.15 -0.0338462 0.0215385 -0.15 -0.04 0.0215385 -0.144 -0.0338462 0.0215385 -0.144
          -0.0276923 0.0215385 -0.15 -0.0276923 0.0215385 -0.144 -0.0215385 0.0215385 -0.15 -0.0215385 0.0215385 -0.144
          -0.0153846 0.0215385 -0.15 -0.0153846 0.0215385 -0.144 -0.00923077 0.0215385 -0.15 -0.00923077 0.0215385 -0.144
          -0.00307692 0.0215385 -0.15 -0.00307692 0.0215385 -0.144 -0.04 0.0276923 -0.15 -0.0338462 0.0276923 -0.15
          -0.04 0.0276923 -0.144 -0.0338462 0.0276923 -0.144 -0.0276923 0.0276923 -0.15 -0.0276923 0.0276923 -0.144
          -0.0215385 0.0276923 -0.15 -0.0215385 0.0276923 -0.144 -0.0153846 0.0276923 -0.15 -0.0153846 0.0276923 -0.144
          -0.00923077 0.0276923 -0.15 -0.00923077 0.0276923 -0.144 -0.00307692 0.0276923 -0.15 -0.00307692 0.0276923 -0.144
          -0.04 0.0338462 -0.15 -0.0338462 0.0338462 -0.15 -0.04 0.0338462 -0.144 -0.0338462 0.0338462 -0.144
          -0.0276923 0.0338462 -0.15 -0.0276923 0.0338462 -0.144 -0.0215385 0.0338462 -0.15 -0.0215385 0.0338462 -0.144
          -0.0153846 0.0338462 -0.15 -0.0153846 0.0338462 -0.144 -0.00923077 0.0338462 -0.15 -0.00923077 0.0338462 -0.144
          -0.00307692 0.0338462 -0.15 -0.00307692 0.0338462 -0.144 -0.04 0.04 -0.15 -0.0338462 0.04 -0.15
          -0.04 0.04 -0.144 -0.0338462 0.04 -0.144 -0.0276923 0.04 -0.15 -0.0276923 0.04 -0.144
          -0.0215385 0.04 -0.15 -0.0215385 0.04 -0.144 -0.0153846 0.04 -0.15 -0.0153846 0.04 -0.144
          -0.00923077 0.04 -0.15 -0.00923077 0.04 -0.144 -0.00307692 0.04 -0.15 -0.00307692 0.04 -0.144
          -0.04 -0.04 -0.138 -0.0338462 -0.04 -0.138 -0.04 -0.0338462 -0.138 -0.0338462 -0.0338462 -0.138
          -0.0276923 -0.04 -0.138 -0.0276923 -0.0338462 -0.138 -0.0215385 -0.04 -0.138 -0.0215385 -0.0338462 -0.138
          -0.0153846 -0.04 -0.138 -0.0153846 -0.0338462 -0.138 -0.00923077 -0.04 -0.138 -0.00923077 -0.0338462 -0.138
          -0.00307692 -0.04 -0.138 -0.00307692 -0.0338462 -0.138 -0.04 -0.0276923 -0.138 -0.0338462 -0.0276923 -0.138
          -0.0276923 -0.0276923 -0.138 -0.0215385 -0.0276923 -0.138 -0.0153846 -0.0276923 -0.138 -0.00923077 -0.0276923 -0.138
          -0.00307692 -0.0276923 -0.138 -0.04 -0.0215385 -0.138 -0.0338462 -0.0215385 -0.138 -0.0276923 -0.0215385 -0.138
          -0.0215385 -0.0215385 -0.138 -0.0153846 -0.0215385 -0.138 -0.00923077 -0.0215385 -0.138 -0.00307692 -0.0215385 -0.138
          -0.04 -0.0153846 -0.138 -0.0338462 -0.0153846 -0.138 -0.0276923 -0.0153846 -0.138 -0.0215385 -0.0153846 -0.138
          -0.0153846 -0.0153846 -0.138 -0.00923077 -0.0153846 -0.138 -0.00307692 -0.0153846 -0.138 -0.04 -0.00923077 -0.138
          -0.0338462 -0.00923077 -0.138 -0.0276923 -0.00923077 -0.138 -0.0215385 -0.00923077 -0.138 -0.0153846 -0.00923077 -0.138
          -0.00923077 -0.00923077 -0.138 -0.00307692 -0.00923077 -0.138 -0.04 -0.00307692 -0.138 -0.0338462 -0.00307692 -0.138
          -0.0276923 -0.00307692 -0.138 -0.0215385 -0.00307692 -0.138 -0.0153846 -0.00307692 -0.138 -0.00923077 -0.00307692 -0.138
          -0.00307692 -0.00307692 -0.138 -0.04 0.00307692 -0.138 -0.0338462 0.00307692 -0.138 -0.0276923 0.00307692 -0.138
          -0.0215385 0.00307692 -0.138 -0.0153846 0.00307692 -0.138 -0.00923077 0.00307692 -0.138 -0.00307692 0.00307692 -0.138
          -0.04 0.00923077 -0.138 -0.0338462 0.00923077 -0.138 -0.0276923 0.00923077 -0.138 -0.0215385 0.00923077 -0.138
          -0.0153846 0.00923077 -0.138 -0.00923077 0.00923077 -0.138 -0.00307692 0.00923077 -0.138 -0.04 0.0153846 -0.138
          -0.0338462 0.0153846 -0.138 -0.0276923 0.0153846 -0.138 -0.0215385 0.0153846 -0.138 -0.0153846 0.0153846 -0.138
          -0.00923077 0.0153846 -0.138 -0.00307692 0.0153846 -0.138 -0.04 0.0215385 -0.138 -0.0338462 0.0215385 -0.138
          -0.0276923 0.0215385 -0.138 -0.0215385 0.0215385 -0.138 -0.0153846 0.0215385 -0.138 -0.00923077 0.0215385 -0.138
          -0.00307692 0.0215385 -0.138 -0.04 0.0276923 -0.138 -0.0338462 0.0276923 -0.138 -0.0276923 0.0276923 -0.138
          -0.0215385 0.0276923 -0.138 -0.0153846 0.0276923 -0.138 -0.00923077 0.0276923 -0.138 -0.00307692 0.0276923 -0.138
          -0.04 0.0338462 -0.138 -0.0338462 0.0338462 -0.138 -0.0276923 0.0338462 -0.138 -0.0215385 0.0338462 -0.138
          -0.0153846 0.0338462 -0.138 -0.00923077 0.0338462 -0.138 -0.00307692 0.0338462 -0.138 -0.04 0.04 -0.138
          -0.0338462 0.04 -0.138 -0.0276923 0.04 -0.138 -0.0215385 0.04 -0.138 -0.0153846 0.04 -0.138
          -0.00923077 0.04 -0.138 -0.00307692 0.04 -0.138 -0.04 -0.04 -0.132 -0.0338462 -0.04 -0.132
          -0.04 -0.0338462 -0.132 -0.0338462 -0.0338462 -0.132 -0.0276923 -0.04 -0.132 -0.0276923 -0.0338462 -0.132
          -0.0215385 -0.04 -0.132 -0.0215385 -0.0338462 -0.132 -0.0153846 -0.04 -0.132 -0.0153846 -0.0338462 -0.132