<?xml version="1.0"?>
<VTKFile type="UnstructuredGrid" version="0.1" byte_order="LittleEndian">
  <UnstructuredGrid>
    <Piece NumberOfCells="1183" NumberOfPoints="1568">
      <CellData Scalars="p (Pa)">
        <DataArray type="Float32" Name="p (Pa)" NumberOfComponents="1" format="ascii">
          -81762.3 -93327.5 -101065 -102501 -85172.7 -72273.8 -66117 -95982.5 -110611 -116161 -111291 -89784.8
          -74869.5 -67920 -132921 -164839 -164284 -137475 -100615 -79778 -70857 -211331 -346235 -342865
          -229726 -120950 -85289.9 -72948.5 -364454 -1.13161e+06 -1.15896e+06 -257596 -122331 -83561 -70287.2 -1.19484e+06
          -1.14526e+06 -356043 -209704 -107024 -73308.2 -61520 -1.13435e+06 -308240 -151295 -106753 -73432.7 -55884.6
          -48368.1 -1.12229e+06 -166597 -83455.6 -61825.5 -47884.4 -39160.2 -34980 -138612 -69501.4 -47515 -37437.7
          -30707.5 -26221.2 -23957 -47604.4 -35884.3 -28143.3 -23140.3 -19552.9 -17093.7 -15825.9 -23528.5 -20409.9
          -17200.5 -14554 -12483.4 -11024 -10262.8 -13702.2 -12715.9 -11177 -9625.77 -8299.7 -7333.63 -6823.8
          -9835.27 -9441.9 -8482.96 -7366.71 -6349.91 -5589.8 -5184.87 -95352.1 -115570 -147235 -208772 -127477
          -95284.5 -83557.6 -111154 -133627 -166713 -212286 -130439 -97313.7 -85056.6 -153185 -188044 -259552
          -244828 -139320 -100824 -86958.1 -250796 -372797 -1.14073e+06 -1.13158e+06 -191583 -104992 -86422.5 -463198
          -1.13196e+06 -1.13904e+06 -271271 -130134 -91275.9 -77493.6 -1.1387e+06 -1.13267e+06 -269341 -137751 -92039.8 -71367.2
          -62549.8 -1.07264e+06 -236973 -117880 -81833.6 -62734 -51850.8 -46726.7 -185094 -98357.9 -66305.2 -51274.6
          -41940 -36067.3 -33163.8 -66638.7 -50954.1 -39762.1 -32603.9 -27651.3 -24366.1 -22699.7 -33226.4 -28987.7
          -24445.2 -20792.6 -18013.2 -16094.7 -15104.8 -18735.3 -17392.7 -15346.4 -13361 -11707.6 -10521.1 -9899.27
          -11619.4 -11202.9 -10169.4 -8977.15 -7897 -7091.3 -6662.35 -8593 -8470.46 -7809.48 -6938.18 -6100.53
          -5458.38 -5112.54 -108688 -143144 -252192 -1.13457e+06 -229134 -126339 -104060 -127894 -163285 -268871
          -1.08613e+06 -222886 -128101 -105961 -184479 -213184 -274718 -301824 -177424 -127832 -107867 -367366
          -371245 -379758 -296989 -174981 -129660 -106169 -1.14508e+06 -1.13412e+06 -344591 -187782 -135943 -108506
          -90574.2 -347617 -712593 -184382 -115309 -90270.5 -75753.5 -67053.5 -175220 -146148 -93060 -70898.4
          -58801.5 -51145 -46909.9 -78270 -67670.5 -54086.4 -44803.8 -38505 -34296.4 -32061.6 -42014.2 -38499.2
          -33228.4 -28692.1 -25211.2 -22792 -21521.5 -24360.7 -23154.3 -20790.1 -18393 -16380.2 -14929.7 -14164.4
          -14664.6 -14309.8 -13174.4 -11829.9 -10605.4 -9689.31 -9199.89 -9351.85 -9330.56 -8741.52 -7915.35 -7102.28
          -6470.96 -6128.47 -6972.14 -7068.92 -6692.57 -6081.35 -5445.09 -4937.86 -4659.52 -115908 -157402 -246150
          -391081 -218750 -146627 -122509 -135931 -190189 -362027 -1.13769e+06 -276294 -157792 -127914 -185673
          -241329 -363654 -358777 -226641 -171572 -136710 -330174 -378607 -332290 -270174 -231615 -230781
          -146435 -1.13928e+06 -1.13207e+06 -289330 -197825 -217042 -193997 -120581 -223611 -237439 -144137 -113884
          -105672 -93384.2 -76782.2 -98807.1 -96750.9 -78547.3 -66700 -59703.4 -53562.6 -48603 -53885.3 -52313.9
          -46373.5 -40900.3 -36703.8 -33449.1 -31419.4 -31626.8 -31044 -28527.6 -25725.3 -23298.7 -21456.4 -20416.2
          -19038.6 -18942.6 -17770.3 -16251 -14822.5 -13723.2 -13119 -11566.4 -11685.9 -11126.3 -10263.3 -9387.37
          -8693.81 -8311.99 -7287.67 -7498.94 -7227.31 -6696.37 -6113.25 -5635.62 -5369.56 -5325.25 -5570.1 -5414.64
          -5023.81 -4567.6 -4184.18 -3968.36 -117795 -167192 -288570 -337484 -220889 -159774 -134831 -140708
          -245154 -1.16797e+06 -1.14886e+06 -307028 -183748 -145274 -186869 -313856 -1.13571e+06 -478661 -303880 -259757
          -168952 -271050 -408886 -477711 -367076 -411686 -1.13373e+06 -236425 -372632 -1.13342e+06 -349759 -314994
          -1.12704e+06 -1.11841e+06 -192241 -177781 -209650 -148382 -134678 -167558 -149015 -89083.3 -86417.8 -85386.4
          -74675 -67611 -64515.7 -57776.1 -49736.7 -46422.1 -45835.7 -42340 -38702.8 -35625.9 -32645.8 -30447
          -26718 -26799.9 -25382.9 -23486.1 -21651.7 -20106.2 -19164.7 -15748.8 -16032.4 -15430.6 -14418.4 -13354.5
          -12475.4 -11970.9 -9262.21 -9592.68 -9353.85 -8797.74 -8160.03 -7622.61 -7316.89 -5536.79 -5873.05 -5801.42
          -5475.28 -5061.09 -4699.67 -4492.14 -3821.41 -4155.92 -4151.06 -3921.66 -3603.63 -3317.82 -3151.94 -112103
          -148883 -205965 -241218 -217846 -161922 -135480 -134257 -190162 -340333 -386593 -324020 -190502
          -145444 -191294 -302793 -1.1864e+06 -535266 -372286 -219050 -155231 -304626 -460308 -1.13631e+06 -546572
          -401149 -265130 -156083 -481089 -1.13342e+06 -1.14472e+06 -1.13794e+06 -1.13071e+06 -232402 -122786 -269731 -223293
          -199807 -186268 -163523 -98169.1 -74430.6 -99454.5 -85764.9 -76514.7 -69370.9 -61523.3 -51128.7 -45114.4
          -45440.1 -43265.4 -40065 -36725.7 -33338 -30067.6 -28061.1 -24212.2 -24229.9 -23114 -21525.8 -19850.7
          -18389.5 -17523.9 -13560.6 -13945.4 -13575.7 -12799.5 -11910.3 -11143.6 -10698.7 -7511.14 -7929.34 -7851.62
          -7464.91 -6965.6 -6522.73 -6265.19 -4087.08 -4486.54 -4529.72 -4329.61 -4024.12 -3739.78 -3571.9 -2517.83
          -2902.51 -2990.82 -2866.88 -2642.53 -2424.54 -2293.89 -103413 -130905 -165886 -203966 -245294 -154272
          -123767 -125344 -160474 -222424 -357027 -1.1365e+06 -219391 -133169 -194086 -240635 -402097 -1.20729e+06
          -1.15047e+06 -222111 -131661 -404798 -426616 -618490 -573001 -299319 -155407 -113351 -1.13622e+06 -1.13263e+06
          -1.13434e+06 -1.13397e+06 -232539 -115975 -87510.4 -1.11092e+06 -249904 -192204 -164459 -98217 -70644.5 -59591.3
          -135381 -86684.1 -72209.3 -62633.2 -51164 -43039.9 -38897.2 -45054.8 -40991.3 -37199.4 -33526.1 -29731.2
          -26667.1 -24965.7 -22172.4 -22126.6 -21042.7 -19493.2 -17828 -16436.4 -15645.7 -11835.8 -12270.7 -11992.3
          -11306.1 -10486.6 -9777.48 -9369.42 -6111.69 -6572.9 -6572.46 -6267.89 -5837.97 -5445.88 -5215.94 -2894.27
          -3325.66 -3429.81 -3298.56 -3054.16 -2814.53 -2670.23 -1422.75 -1833.72 -1974.4 -1911.69 -1743.09 -1566.33
          -1457.4 -93687.8 -115851 -137320 -152924 -146194 -115897 -100555 -114074 -142879 -180146 -245994
          -220129 -129584 -103134 -189311 -228136 -352332 -1.13389e+06 -266492 -130241 -99461.4 -636061 -490630
          -1.14392e+06 -1.13793e+06 -206181 -108511 -86020.3 -1.13367e+06 -1.13156e+06 -336576 -236255 -118183 -80512.8 -67430.1
          -222079 -195027 -125207 -96220.1 -69641.5 -55060.1 -48630 -77654.5 -72541.6 -60673.3 -51087.6 -42350.9
          -36322.5 -33302.2 -36733.7 -36354.8 -33298.9 -29653.9 -26099.8 -23386.1 -21935.9 -19441.1 -19897.4 -19003.5
          -17485.3 -15856 -14534.5 -13803.1 -10294.2 -10832.1 -10621.5 -9967.08 -9170.81 -8487.9 -8099.5 -4974.5
          -5468.38 -5505.18 -5231.6 -4826.96 -4455.18 -4237.37 -1934.02 -2381.89 -2513.79 -2412.12 -2193.93 -1974.11
          -1840.65 -535.262 -958.381 -1123.58 -1089.44 -947.128 -790.13 -691.839 -84328.5 -103591 -114349 -113726
          -102684 -88496.7 -80583.2 -100200 -130296 -143565 -139110 -115180 -91423.3 -80570.8 -145209 -243026
          -263508 -221264 -126392 -90187.2 -77050.3 -264403 -1.14156e+06 -1.13388e+06 -245563 -114568 -79630.4 -67882.3
          -260176 -1.1311e+06 -259380 -128527 -82468 -62649.4 -54763.4 -116396 -171099 -104137 -73618 -55656.1
          -45551.6 -40988.3 -58596 -63948.6 -53769.1 -44051.7 -36446.1 -31417.7 -28944.2 -31779.2 -33076.2 -30430.5
          -26707.3 -23248.1 -20714.5 -19395.5 -17523.2 -18287.9 -17464.7 -15887.8 -14226.7 -12918.1 -12208.9 -9192.46
          -9793.01 -9587.21 -8900.55 -8076.79 -7384.08 -6995.83 -4145.98 -4654.24 -4689.8 -4403.88 -3987.62 -3610.2
          -3391.09 -1215.24 -1667.74 -1801.38 -1698.66 -1479.34 -1259.57 -1126.71 141.029 -284.777 -453.917 -423.654
          -284.923 -130.842 -34.5295 -77665.7 -95606.4 -98733.6 -91596.5 -80983.9 -71719.5 -66711.6 -92603.9 -125408
          -119634 -102500 -84999.1 -72266.9 -66037.9 -129116 -233439 -173986 -122704 -88486.7 -70663.9 -63079.1
          -172644 -378931 -258553 -129446 -83366.3 -64068 -56472.5 -204292 -1.13004e+06 -209970 -101217 -67472.5
          -52724.3 -46742.3 -106060 -165955 -96230.2 -65040.3 -48600.6 -39791.5 -35895.4 -56250.6 -62431.8 -51297.4
          -40664.9 -32970.8 -28149.5 -25846.8 -31059.9 -32433.4 -29301.7 -25071 -21377.3 -18796.9 -17490.9 -17061.4
          -17801.6 -16742.4 -14908.6 -13084.1 -11703.2 -10972.6 -8739.88 -9317.77 -9003.49 -8192.8 -7277.31 -6533.81
          -6125.27 -3682.24 -4177.6 -4164.59 -3820.64 -3357.43 -2950.91 -2718.81 -748.959 -1194.65 -1306.11 -1176.07
          -933.381 -698.159 -558.001 606.261 184.78 27.7367 73.2304 225.459 388.664 489.63 -73443.7 -92573.7
          -89262.9 -79151.3 -69089.6 -61648.1 -57807.7 -93532.7 -164014 -112943 -87325.8 -71464.9 -61715.5 -57073.7
          -169544 -1.09834e+06 -196720 -102877 -73960.7 -60422.1 -54673.3 -217590 -1.1364e+06 -245999 -111081 -71800.5
          -55854.9 -49603.9 -261264 -1.13204e+06 -242689 -100978 -62083.8 -47433.8 -41874.8 -170893 -183848 -103922
          -64577.8 -45725.4 -36558.8 -32713.6 -72152.2 -69751.2 -53691.5 -40192 -31350.1 -26198.1 -23835.9 -35792.2
          -35217.8 -30158.9 -24700.3 -20406.1 -17587.7 -16208.8 -18452.6 -18697.9 -16933 -14566.1 -12432.6 -10903
          -10116.7 -9027 -9465.12 -8892.15 -7851.96 -6782.91 -5954.8 -5510.64 -3588.15 -4038.35 -3926.06 -3481.86
          -2943.53 -2491.2 -2238.29 -521.299 -949.589 -1018.92 -842.005 -561.156 -300.799 -148.717 876.649 464.588
          330.661 403.524 579.438 759.031 868.158 -66943.7 -80331.5 -79259.8 -70970.6 -62230.1 -55816.6 -52534.1
          -79894.9 -105815 -93649.4 -76928.5 -64015.3 -55796.2 -51861.8 -117038 -224640 -133182 -88792.6 -66326.1
          -54820 -49856 -231645 -1.1309e+06 -247425 -106603 -66704.2 -51481.8 -45688.1 -1.13012e+06 -1.13131e+06 -1.1183e+06
          -142336 -62245.7 -44819.3 -39114.1 -1.12786e+06 -251238 -153316 -70799.1 -45183.5 -34903.6 -30891.9 -165504
          -92788.2 -61630.7 -41641.5 -30865.8 -25169.6 -22670.3 -52075.3 -42630.4 -32787 -25201.3 -20066.7 -16936.1
          -15456.5 -22232.3 -20997.5 -17853.3 -14690.1 -12164.8 -10459.9 -9608.28 -9990.53 -10124.9 -9138.95 -7795.18
          -6545.99 -5624.48 -5141.78 -3782.4 -4156.06 -3908.73 -3344.15 -2722.97 -2222.29 -1947.73 -478.859 -882.484
          -901.061 -671.566 -350.636 -64.5261 100.035 989.902 589.57 481.532 583.944 784.456 980.906 1098.46
          -62833.3 -73410.7 -73517.6 -66759.3 -58976 -53113.7 -50089.9 -71883.5 -86969.7 -83145.1 -71332 -60419.7
          -53052.2 -49455.7 -93880 -124903 -105279 -79839.4 -62231.1 -52143.1 -47620.3 -141037 -230975 -145242
          -89712.4 -62124.4 -49120 -43820.5 -273871 -311495 -202954 -92516 -56776.8 -42960.3 -37739.1 -1.13315e+06
          -239417 -111329 -64108.9 -43464.6 -33910.6 -30015.3 -1.1241e+06 -149566 -65060.4 -41622.9 -30473.4 -24675.2
          -22140.4 -106723 -54612.1 -35308.9 -25659.8 -19975.7 -16668 -15131.7 -28476.3 -23842.1 -18829.7 -14926.9
          -12112.3 -10291.4 -9398.07 -11179.9 -10875.9 -9461.79 -7865.71 -6486.62 -5502.68 -4995.01 -4060.93 -4353.79
          -3990.16 -3334.64 -2656.7 -2124.5 -1836.1 -532.598 -915.313 -895.213 -628.234 -281.538 20.5924 192.89
          996.459 604.731 514.837 637.306 853.317 1060.24 1183.04
        </DataArray>
        <DataArray type="Float32" Name="saturation" NumberOfComponents="1" format="ascii">
          0.247493 0.245262 0.243886 0.243639 0.246812 0.2495 0.250899 0.24478 0.242299 0.241429 0.242191 0.245923
          0.248933 0.250481 0.239004 0.235079 0.235141 0.238393 0.243963 0.247899 0.249814 0.230547 0.221905 0.222068
          0.229041 0.240706 0.246789 0.249351 0.221054 0.205548 0.205293 0.226998 0.240502 0.247131 0.249942 0.204971
          0.20542 0.22144 0.230687 0.242882 0.249272 0.251999 0.205522 0.223871 0.236647 0.242927 0.249245 0.253417
          0.255442 0.205637 0.234885 0.247152 0.251924 0.255578 0.258158 0.259487 0.238243 0.25012 0.255682 0.258698
          0.260916 0.262498 0.263332 0.255657 0.259194 0.26181 0.263638 0.265024 0.266013 0.266536 0.263492 0.264687
          0.26597 0.26707 0.26796 0.268603 0.268944 0.267433 0.267859 0.268535 0.269232 0.26984 0.27029 0.270531
          0.269137 0.269315 0.269755 0.270275 0.270756 0.27112 0.271316 0.244894 0.24152 0.237144 0.230767 0.23976
          0.244906 0.247132 0.242213 0.238908 0.234872 0.230465 0.239345 0.244542 0.246835 0.23642 0.232671 0.226865
          0.227901 0.23815 0.243927 0.246464 0.227473 0.220682 0.205462 0.205549 0.23233 0.243219 0.246568 0.217231
          0.205545 0.205478 0.226087 0.239388 0.245642 0.248375 0.205481 0.205538 0.226212 0.238356 0.2455 0.249701
          0.251748 0.206131 0.228484 0.241167 0.247479 0.251703 0.254484 0.255906 0.232959 0.244358 0.250855 0.25464
          0.257308 0.259135 0.260085 0.250777 0.254727 0.257971 0.260273 0.261984 0.263179 0.263805 0.260065 0.261512
          0.26315 0.264538 0.26564 0.266425 0.266838 0.26535 0.265891 0.266736 0.26758 0.2683 0.268827 0.269108
          0.268339 0.268523 0.268986 0.269528 0.270027 0.270404 0.270607 0.269704 0.269761 0.270068 0.270477 0.270875
          0.271184 0.271351 0.24261 0.237658 0.227374 0.20552 0.229087 0.239922 0.243375 0.239701 0.235252 0.226243
          0.205993 0.229585 0.239672 0.243057 0.23302 0.230389 0.225865 0.224232 0.233733 0.23971 0.242744 0.220923
          0.220751 0.22038 0.22451 0.233986 0.239454 0.243023 0.205421 0.205524 0.221984 0.232696 0.238596 0.242639
          0.245774 0.221838 0.211075 0.23303 0.24156 0.245831 0.248744 0.250681 0.233962 0.237279 0.245312 0.249805
          0.252673 0.254675 0.255854 0.248212 0.250538 0.253887 0.25646 0.258362 0.259711 0.260455 0.257286 0.258364
          0.260064 0.261616 0.262867 0.26377 0.264256 0.263181 0.263633 0.264539 0.265487 0.266307 0.266912 0.267236
          0.267023 0.267174 0.26766 0.268246 0.26879 0.269203 0.269426 0.269356 0.269366 0.269636 0.270018 0.270399
          0.270698 0.270862 0.270461 0.270415 0.270593 0.270884 0.27119 0.271436 0.271572 0.241468 0.235924 0.227805
          0.219903 0.229923 0.237219 0.240476 0.238598 0.232464 0.221164 0.205491 0.225765 0.235879 0.239699 0.232902
          0.228158 0.22109 0.221313 0.229284 0.234346 0.238494 0.222702 0.220429 0.222594 0.226158 0.228894 0.228958
          0.237243 0.205476 0.205544 0.224962 0.231746 0.230064 0.232102 0.240761 0.229526 0.228448 0.237532 0.241782
          0.243106 0.245252 0.248525 0.244279 0.244643 0.248154 0.250763 0.252447 0.254026 0.255376 0.25394 0.254359
          0.256007 0.257623 0.258931 0.259991 0.260673 0.260602 0.260801 0.261674 0.262679 0.263579 0.264281 0.264685
          0.265228 0.265267 0.265738 0.26636 0.266957 0.267424 0.267684 0.268362 0.26831 0.268557 0.268943 0.26934
          0.269658 0.269834 0.270312 0.270213 0.27034 0.270591 0.270869 0.271098 0.271227 0.271248 0.27113 0.271205
          0.271395 0.271617 0.271806 0.271912 0.24118 0.23482 0.225008 0.222333 0.229747 0.23565 0.238745 0.23797
          0.227877 0.205211 0.205386 0.223938 0.233093 0.237388 0.232785 0.223562 0.205509 0.216729 0.224115 0.226851
          0.234628 0.226101 0.219187 0.216759 0.220936 0.219078 0.205528 0.228525 0.220689 0.205531 0.221736 0.2235
          0.205592 0.205675 0.232268 0.233696 0.230691 0.237002 0.238766 0.23478 0.236924 0.246056 0.246569 0.24677
          0.248975 0.250552 0.251276 0.252932 0.255061 0.255993 0.256162 0.257188 0.2583 0.259277 0.260259 0.261005
          0.262319 0.262289 0.262804 0.263508 0.264205 0.264806 0.265178 0.266568 0.26645 0.266701 0.267128 0.267582
          0.267963 0.268184 0.269397 0.269247 0.269355 0.26961 0.269905 0.270155 0.270298 0.271146 0.270984 0.271019
          0.271176 0.271376 0.271553 0.271654 0.271985 0.27182 0.271822 0.271935 0.272093 0.272235 0.272318 0.242062
          0.236941 0.231013 0.228166 0.229997 0.235406 0.238658 0.238823 0.232466 0.222192 0.22009 0.22302 0.232434
          0.237367 0.232358 0.224177 0.205046 0.215058 0.220705 0.229898 0.236178 0.224073 0.217328 0.205504 0.214753
          0.219493 0.226489 0.236078 0.216652 0.205531 0.205425 0.205488 0.205557 0.228833 0.240436 0.226187 0.229552
          0.231565 0.232844 0.235226 0.244391 0.249028 0.244165 0.246696 0.248581 0.250149 0.251998 0.25468 0.25637
          0.256276 0.256912 0.257878 0.258924 0.260028 0.261136 0.261839 0.263237 0.26323 0.263648 0.264254 0.264907
          0.265488 0.265838 0.267494 0.267329 0.267487 0.267822 0.268211 0.26855 0.268748 0.270207 0.270012 0.270048
          0.270229 0.270464 0.270674 0.270796 0.271853 0.271657 0.271636 0.271734 0.271885 0.272025 0.272109 0.272637
          0.272443 0.272399 0.272461 0.272574 0.272684 0.272751 0.243485 0.239281 0.234963 0.23119 0.227867 0.236291
          0.240293 0.240065 0.23557 0.229622 0.221394 0.205502 0.22987 0.23897 0.232094 0.228209 0.219455 0.204863
          0.205371 0.229647 0.239177 0.219348 0.218513 0.212993 0.214071 0.224375 0.236157 0.241865 0.205505 0.205539
          0.205522 0.205526 0.228822 0.241458 0.246357 0.205748 0.227536 0.232271 0.235121 0.244382 0.249862 0.252475
          0.238672 0.246517 0.249514 0.251728 0.25467 0.256979 0.258239 0.256387 0.257595 0.258773 0.259965 0.261253
          0.262337 0.262958 0.264006 0.264023 0.264441 0.265048 0.265715 0.266283 0.266611 0.268244 0.268053 0.268175
          0.268477 0.268843 0.269163 0.269348 0.27087 0.27065 0.27065 0.270795 0.271001 0.27119 0.271301 0.272447
          0.272231 0.272179 0.272245 0.272367 0.272488 0.27256 0.273195 0.272985 0.272913 0.272945 0.273031 0.273122
          0.273178 0.245196 0.241477 0.238413 0.236452 0.237273 0.24147 0.243974 0.241752 0.237691 0.233454 0.227817
          0.229809 0.239464 0.243532 0.232548 0.229165 0.221614 0.205527 0.226399 0.239373 0.244164 0.212605 0.216354
          0.205432 0.205489 0.230994 0.242638 0.246646 0.205529 0.205549 0.222378 0.228538 0.241121 0.247748 0.250593
          0.22965 0.232006 0.240084 0.244738 0.250088 0.253632 0.255369 0.248341 0.249441 0.252207 0.254691 0.257185
          0.259053 0.260039 0.258921 0.259043 0.260041 0.26128 0.262542 0.263546 0.264096 0.265069 0.264888 0.265242
          0.265854 0.266524 0.267078 0.26739 0.268929 0.268688 0.268782 0.269077 0.269439 0.269753 0.269933 0.271419
          0.271179 0.271161 0.271294 0.27149 0.271672 0.271779 0.272934 0.272706 0.272639 0.272691 0.272801 0.272913
          0.272981 0.273655 0.273435 0.27335 0.273367 0.273441 0.273522 0.273574 0.246979 0.243454 0.241709 0.241806
          0.243608 0.246168 0.247733 0.244035 0.239365 0.237604 0.238178 0.24158 0.245615 0.247736 0.237397 0.228033
          0.226598 0.229716 0.239915 0.245847 0.248468 0.226538 0.205454 0.205527 0.227848 0.241675 0.247929 0.250489
          0.226822 0.205553 0.226876 0.239612 0.24735 0.251724 0.253709 0.241393 0.234397 0.243362 0.249205 0.253476
          0.256243 0.257596 0.252725 0.251411 0.253971 0.25668 0.259013 0.260673 0.261527 0.26055 0.260115 0.261011
          0.262323 0.263598 0.264568 0.265087 0.265838 0.265529 0.265862 0.266511 0.267209 0.267771 0.26808 0.269429
          0.269156 0.269249 0.269563 0.269943 0.270267 0.27045 0.271824 0.271575 0.271557 0.271698 0.271903 0.27209
          0.272199 0.273302 0.27307 0.273001 0.273054 0.273166 0.273279 0.273348 0.27401 0.273786 0.273697 0.273713
          0.273786 0.273867 0.273917 0.248338 0.244848 0.244291 0.245583 0.247651 0.249622 0.25076 0.245396 0.240055
          0.240902 0.24364 0.246846 0.249501 0.250917 0.23953 0.228753 0.234091 0.240448 0.246169 0.249858 0.25162
          0.234233 0.220415 0.226933 0.239484 0.24717 0.251383 0.253265 0.231161 0.205563 0.230664 0.243859 0.250584
          0.254249 0.255902 0.243041 0.234956 0.244736 0.251152 0.255377 0.257962 0.25919 0.253323 0.251777 0.254634
          0.257694 0.26015 0.261807 0.262635 0.260795 0.26033 0.261402 0.262919 0.264311 0.265325 0.265851 0.266027
          0.265725 0.266157 0.26692 0.267699 0.268302 0.268626 0.269637 0.269372 0.269515 0.269889 0.270317 0.270668
          0.270863 0.272054 0.271809 0.271815 0.271985 0.272215 0.272419 0.272536 0.273544 0.273313 0.273256 0.273323
          0.273448 0.27357 0.273643 0.274256 0.274033 0.27395 0.273974 0.274054 0.27414 0.274194 0.249243 0.245401
          0.246022 0.248028 0.250213 0.251967 0.252924 0.245225 0.235171 0.241929 0.246392 0.249679 0.251951 0.253111
          0.234564 0.205871 0.231848 0.243575 0.24913 0.252269 0.253733 0.230019 0.205503 0.227816 0.242224 0.249604
          0.253425 0.255098 0.226748 0.205544 0.228058 0.243901 0.251861 0.255705 0.257328 0.234419 0.233083 0.243399
          0.251262 0.256193 0.258977 0.260236 0.249526 0.250063 0.253992 0.257839 0.260696 0.262507 0.263377 0.259224
          0.25941 0.261105 0.263056 0.264689 0.265812 0.266377 0.265463 0.265364 0.266079 0.267065 0.267982 0.268657
          0.269009 0.269505 0.269305 0.269567 0.270048 0.27055 0.270945 0.271159 0.272101 0.271878 0.271933 0.272153
          0.272423 0.272651 0.272779 0.273662 0.27344 0.273404 0.273495 0.273642 0.273778 0.273857 0.2744 0.274181
          0.27411 0.274148 0.274242 0.274337 0.274395 0.250706 0.247785 0.248006 0.249789 0.251826 0.253435 0.2543
          0.247874 0.243082 0.245203 0.248494 0.251395 0.25344 0.254481 0.241295 0.229443 0.238969 0.246111 0.25085
          0.253694 0.255028 0.228891 0.205555 0.227713 0.242951 0.250762 0.254584 0.256204 0.205562 0.205551 0.205676
          0.237761 0.251822 0.256456 0.258172 0.205584 0.227441 0.236405 0.249827 0.25635 0.259512 0.260853 0.235005
          0.245362 0.251972 0.257398 0.260862 0.262882 0.263816 0.254423 0.257101 0.260211 0.262871 0.264822 0.266078
          0.26669 0.263983 0.264458 0.265704 0.267013 0.268099 0.268855 0.269239 0.269066 0.269006 0.269453 0.270074
          0.270663 0.271104 0.271337 0.272004 0.271819 0.271942 0.272222 0.272534 0.272787 0.272927 0.273684 0.273474
          0.273465 0.273584 0.273751 0.273901 0.273988 0.27446 0.274247 0.27419 0.274244 0.274351 0.274455 0.274518
          0.251679 0.24925 0.249227 0.250749 0.252629 0.254145 0.254964 0.249586 0.246461 0.247214 0.249708 0.252269
          0.254162 0.255139 0.245161 0.240128 0.243171 0.247886 0.251825 0.254405 0.255652 0.237928 0.228943 0.237392
          0.245936 0.251851 0.255232 0.256748 0.22592 0.223691 0.231281 0.245412 0.253187 0.257003 0.258602 0.205534
          0.2283 0.242185 0.251373 0.256853 0.259838 0.261154 0.20562 0.236857 0.251147 0.257404 0.260996 0.263065
          0.264018 0.242931 0.253749 0.25938 0.262703 0.264857 0.266188 0.266827 0.261692 0.263375 0.265312 0.266913
          0.268122 0.268931 0.269335 0.268533 0.268669 0.269306 0.270041 0.270691 0.271163 0.271409 0.271866 0.271722
          0.271901 0.272227 0.272567 0.272837 0.272984 0.273656 0.273457 0.273468 0.273607 0.273788 0.273946 0.274037
          0.274464 0.274255 0.274207 0.274272 0.274387 0.274498 0.274564
        </DataArray>
        <DataArray type="Float32" Name="process rank" NumberOfComponents="1" format="ascii">
          3 3 3 3 3 3 3 3 3 3 3 3
          3 3 3 3 3 3 3 3 3 3 3 3
          3 3 3 3 3 3 3 3 3 3 3 3
          3 3 3 3 3 3 3 3 3 3 3 3
          3 3 3 3 3 3 3 3 3 3 3 3
          3 3 3 3 3 3 3 3 3 3 3 3
          3 3 3 3 3 3 3 3 3 3 3 3
          3 3 3 3 3 3 3 3 3 3 3 3
          3 3 3 3 3 3 3 3 3 3 3 3
          3 3 3 3 3 3 3 3 3 3 3 3
          3 3 3 3 3 3 3 3 3 3 3 3
          3 3 3 3 3 3 3 3 3 3 3 3
          3 3 3 3 3 3 3 3 3 3 3 3
          3 3 3 3 3 3 3 3 3 3 3 3
          3 3 3 3 3 3 3 3 3 3 3 3
          3 3 3 3 3 3 3 3 3 3 3 3
          3 3 3 3 3 3 3 3 3 3 3 3
          3 3 3 3 3 3 3 3 3 3 3 3
          3 3 3 3 3 3 3 3 3 3 3 3
          3 3 3 3 3 3 3 3 3 3 3 3
          3 3 3 3 3 3 3 3 3 3 3 3
          3 3 3 3 3 3 3 3 3 3 3 3
          3 3 3 3 3 3 3 3 3 3 3 3
          3 3 3 3 3 3 3 3 3 3 3 3
          3 3 3 3 3 3 3 3 3 3 3 3
          3 3 3 3 3 3 3 3 3 3 3 3
          3 3 3 3 3 3 3 3 3 3 3 3
          3 3 3 3 3 3 3 3 3 3 3 3
          3 3 3 3 3 3 3 3 3 3 3 3
          3 3 3 3 3 3 3 3 3 3 3 3
          3 3 3 3 3 3 3 3 3 3 3 3
          3 3 3 3 3 3 3 3 3 3 3 3
          3 3 3 3 3 3 3 3 3 3 3 3
          3 3 3 3 3 3 3 3 3 3 3 3
          3 3 3 3 3 3 3 3 3 3 3 3
          3 3 3 3 3 3 3 3 3 3 3 3
          3 3 3 3 3 3 3 3 3 3 3 3
          3 3 3 3 3 3 3 3 3 3 3 3
          3 3 3 3 3 3 3 3 3 3 3 3
          3 3 3 3 3 3 3 3 3 3 3 3
          3 3 3 3 3 3 3 3 3 3 3 3
          3 3 3 3 3 3 3 3 3 3 3 3
          3 3 3 3 3 3 3 3 3 3 3 3
          3 3 3 3 3 3 3 3 3 3 3 3
          3 3 3 3 3 3 3 3 3 3 3 3
          3 3 3 3 3 3 3 3 3 3 3 3
          3 3 3 3 3 3 3 3 3 3 3 3
          3 3 3 3 3 3 3 3 3 3 3 3
          3 3 3 3 3 3 3 3 3 3 3 3
          3 3 3 3 3 3 3 3 3 3 3 3
          3 3 3 3 3 3 3 3 3 3 3 3
          3 3 3 3 3 3 3 3 3 3 3 3
          3 3 3 3 3 3 3 3 3 3 3 3
          3 3 3 3 3 3 3 3 3 3 3 3
          3 3 3 3 3 3 3 3 3 3 3 3
          3 3 3 3 3 3 3 3 3 3 3 3
          3 3 3 3 3 3 3 3 3 3 3 3
          3 3 3 3 3 3 3 3 3 3 3 3
          3 3 3 3 3 3 3 3 3 3 3 3
          3 3 3 3 3 3 3 3 3 3 3 3
          3 3 3 3 3 3 3 3 3 3 3 3
          3 3 3 3 3 3 3 3 3 3 3 3
          3 3 3 3 3 3 3 3 3 3 3 3
          3 3 3 3 3 3 3 3 3 3 3 3
          3 3 3 3 3 3 3 3 3 3 3 3
          3 3 3 3 3 3 3 3 3 3 3 3
          3 3 3 3 3 3 3 3 3 3 3 3
          3 3 3 3 3 3 3 3 3 3 3 3
          3 3 3 3 3 3 3 3 3 3 3 3
          3 3 3 3 3 3 3 3 3 3 3 3
          3 3 3 3 3 3 3 3 3 3 3 3
          3 3 3 3 3 3 3 3 3 3 3 3
          3 3 3 3 3 3 3 3 3 3 3 3
          3 3 3 3 3 3 3 3 3 3 3 3
          3 3 3 3 3 3 3 3 3 3 3 3
          3 3 3 3 3 3 3 3 3 3 3 3
          3 3 3 3 3 3 3 3 3 3 3 3
          3 3 3 3 3 3 3 3 3 3 3 3
          3 3 3 3 3 3 3 3 3 3 3 3
          3 3 3 3 3 3 3 3 3 3 3 3
          3 3 3 3 3 3 3 3 3 3 3 3
          3 3 3 3 3 3 3 3 3 3 3 3
          3 3 3 3 3 3 3 3 3 3 3 3
          3 3 3 3 3 3 3 3 3 3 3 3
          3 3 3 3 3 3 3 3 3 3 3 3
          3 3 3 3 3 3 3 3 3 3 3 3
          3 3 3 3 3 3 3 3 3 3 3 3
          3 3 3 3 3 3 3 3 3 3 3 3
          3 3 3 3 3 3 3 3 3 3 3 3
          3 3 3 3 3 3 3 3 3 3 3 3
          3 3 3 3 3 3 3 3 3 3 3 3
          3 3 3 3 3 3 3 3 3 3 3 3
          3 3 3 3 3 3 3 3 3 3 3 3
          3 3 3 3 3 3 3 3 3 3 3 3
          3 3 3 3 3 3 3 3 3 3 3 3
          3 3 3 3 3 3 3 3 3 3 3 3
          3 3 3 3 3 3 3 3 3 3 3 3
          3 3 3 3 3 3 3 3 3 3 3 3
          3 3 3 3 3 3 3
        </DataArray>
      </CellData>
      <Points>
        <DataArray type="Float32" Name="Coordinates" NumberOfComponents="3" format="ascii">
          -0.00307692 -0.04 -0.078 0.00307692 -0.04 -0.078 -0.00307692 -0.0338462 -0.078 0.00307692 -0.0338462 -0.078
          -0.00307692 -0.04 -0.072 0.00307692 -0.04 -0.072 -0.00307692 -0.0338462 -0.072 0.00307692 -0.0338462 -0.072
          0.00923077 -0.04 -0.078 0.00923077 -0.0338462 -0.078 0.00923077 -0.04 -0.072 0.00923077 -0.0338462 -0.072
          0.0153846 -0.04 -0.078 0.0153846 -0.0338462 -0.078 0.0153846 -0.04 -0.072 0.0153846 -0.0338462 -0.072
          0.0215385 -0.04 -0.078 0.0215385 -0.0338462 -0.078 0.0215385 -0.04 -0.072 0.0215385 -0.0338462 -0.072
          0.0276923 -0.04 -0.078 0.0276923 -0.0338462 -0.078 0.0276923 -0.04 -0.072 0.0276923 -0.0338462 -0.072
          0.0338462 -0.04 -0.078 0.0338462 -0.0338462 -0.078 0.0338462 -0.04 -0.072 0.0338462 -0.0338462 -0.072
          0.04 -0.04 -0.078 0.04 -0.0338462 -0.078 0.04 -0.04 -0.072 0.04 -0.0338462 -0.072
          -0.00307692 -0.0276923 -0.078 0.00307692 -0.0276923 -0.078 -0.00307692 -0.0276923 -0.072 0.00307692 -0.0276923 -0.072
          0.00923077 -0.0276923 -0.078 0.00923077 -0.0276923 -0.072 0.0153846 -0.0276923 -0.078 0.0153846 -0.0276923 -0.072
          0.0215385 -0.0276923 -0.078 0.0215385 -0.0276923 -0.072 0.0276923 -0.0276923 -0.078 0.0276923 -0.0276923 -0.072
          0.0338462 -0.0276923 -0.078 0.0338462 -0.0276923 -0.072 0.04 -0.0276923 -0.078 0.04 -0.0276923 -0.072
          -0.00307692 -0.0215385 -0.078 0.00307692 -0.0215385 -0.078 -0.00307692 -0.0215385 -0.072 0.00307692 -0.0215385 -0.072
          0.00923077 -0.0215385 -0.078 0.00923077 -0.0215385 -0.072 0.0153846 -0.0215385 -0.078 0.0153846 -0.0215385 -0.072
          0.0215385 -0.0215385 -0.078 0.0215385 -0.0215385 -0.072 0.0276923 -0.0215385 -0.078 0.0276923 -0.0215385 -0.072
          0.0338462 -0.0215385 -0.078 0.0338462 -0.0215385 -0.072 0.04 -0.0215385 -0.078 0.04 -0.0215385 -0.072
          -0.00307692 -0.0153846 -0.078 0.00307692 -0.0153846 -0.078 -0.00307692 -0.0153846 -0.072 0.00307692 -0.0153846 -0.072
          0.00923077 -0.0153846 -0.078 0.00923077 -0.0153846 -0.072 0.0153846 -0.0153846 -0.078 0.0153846 -0.0153846 -0.072
          0.0215385 -0.0153846 -0.078 0.0215385 -0.0153846 -0.072 0.0276923 -0.0153846 -0.078 0.0276923 -0.0153846 -0.072
          0.0338462 -0.0153846 -0.078 0.0338462 -0.0153846 -0.072 0.04 -0.0153846 -0.078 0.04 -0.0153846 -0.072
          -0.00307692 -0.00923077 -0.078 0.00307692 -0.00923077 -0.078 -0.00307692 -0.00923077 -0.072 0.00307692 -0.00923077 -0.072
          0.00923077 -0.00923077 -0.078 0.00923077 -0.00923077 -0.072 0.0153846 -0.00923077 -0.078 0.0153846 -0.00923077 -0.072
          0.0215385 -0.00923077 -0.078 0.0215385 -0.00923077 -0.072 0.0276923 -0.00923077 -0.078 0.0276923 -0.00923077 -0.072
          0.0338462 -0.00923077 -0.078 0.0338462 -0.00923077 -0.072 0.04 -0.00923077 -0.078 0.04 -0.00923077 -0.072
          -0.00307692 -0.00307692 -0.078 0.00307692 -0.00307692 -0.078 -0.00307692 -0.00307692 -0.072 0.00307692 -0.00307692 -0.072