<?xml version="1.0"?>
<VTKFile type="UnstructuredGrid" version="0.1" byte_order="LittleEndian">
  <UnstructuredGrid>
    <Piece NumberOfCells="1092" NumberOfPoints="1456">
      <CellData Scalars="p (Pa)">
        <DataArray type="Float32" Name="p (Pa)" NumberOfComponents="1" format="ascii">
          11219.9 10801.2 10546.5 10440.6 10436 10474.5 10507.3 11209.4 10785 10533.7 10437.7 10444.9
          10493.1 10531.3 11226.1 10792.8 10547.7 10468.4 10494.7 10558.4 10605 11335.6 10895.9 10658.4
          10595.6 10639.6 10717 10771 11606.8 11171.3 10940.7 10885.2 10935 11016.2 11072.1 12073.7
          11659 11433.5 11371.2 11409.7 11480.8 11530.9 12705.1 12324.5 12106 12030 12046.2 12097.2
          12135.8 13431.6 13091 12883.5 12794.9 12787.3 12815.4 12840.4 14174.3 13873 13679 13582.4
          13555.1 13562.9 13575.5 14859.9 14592.6 14412.2 14311.7 14270.5 14262.9 14265.7 15427.4 15186.5
          15017.6 14915.9 14865.8 14847.7 14843.8 15830.8 15607.7 15447 15345.2 15290.1 15265.7 15257.6
          16040 15825.8 15669.3 15567.7 15510.3 15482.9 15473 10269.3 9819.68 9570.79 9497.96 9536.62
          9612.9 9667.22 10215.6 9755.16 9512.89 9458.22 9517.31 9609.72 9672.67 10159 9679.57 9449.77
          9426.86 9520.26 9639.12 9716.04 10195 9695.83 9481.45 9492.03 9619.03 9762.74 9852.58 10437.8
          9933.82 9730.33 9755.56 9894.52 10046.4 10140.4 10954.4 10480.1 10273.4 10278.1 10394.3 10529.1
          10614.5 11685.7 11261.1 11052.8 11023.5 11097.7 11198.8 11266 12528.3 12158.4 11956.8 11898.9
          11931.4 11995.4 12041.6 13383.7 13063.9 12874.4 12798.2 12798.2 12830.8 12858.1 14167.7 13888.8
          13712.3 13626.2 13603.9 13613.3 13626.4 14812.7 14564.3 14398.8 14307.8 14271.4 14265.5 14268.8
          15269.2 15040.7 14883 14789.7 14745.2 14730.2 14727.6 15505.2 15286.5 15132.7 15038.6 14990.4
          14971.2 14965.9 8345.59 7829.45 7600.05 7607.83 7747.41 7909.56 8012.05 8178.66 7637.4 7425.71
          7475.81 7659.51 7854.68 7974.27 7921.38 7328.65 7153.29 7283.15 7545.24 7796.97 7945.35 7739.56
          7075.37 6951.57 7176.18 7522.26 7831.32 8008.23 7880.15 7166.1 7081.52 7354.79 7736.21 8068.32
          8257.03 8539.83 7898.29 7767.09 7965.87 8287.52 8583.98 8757.12 9534.87 9000.61 8830.11 8925.31
          9145.3 9370.65 9508.62 10661 10226.7 10046.5 10065.4 10194.1 10344.9 10442.1 11780.4 11424.4
          11250.7 11224.5 11287.9 11378.6 11440.6 12789.7 12490.2 12326.7 12275.5 12296.4 12345.1 12381.5
          13609.7 13348.5 13193.8 13128.6 13123.3 13145 13164.5 14184.6 13947 13798.2 13725.2 13704.8
          13710.7 13720.4 14480 14253.7 14107.8 14031.3 14004 14002.7 14007.7 5280.9 4654.36 4477.33
          4647.02 4975.42 5292.62 5480.42 4862.11 4174.58 4050.37 4323.5 4751.35 5138.62 5361.51 4123.92
          3286.35 3285.09 3775.89 4393.61 4907.68 5192.41 3346.62 2226.97 2451.13 3249.33 4096.27 4751.42
          5102.82 3127.32 1679.02 2163.25 3174.62 4142.56 4868.09 5254.14 4208.74 3097.81 3263.25 3976.94
          4770.39 5417.16 5776.1 5836.75 5060.53 5013.52 5393.65 5918.83 6405.9 6693.62 7549.09 7006.17
          6890.46 7068.06 7384.19 7709.12 7911.14 9180.2 8778.36 8650.87 8723.84 8906.13 9108.31 9238.33
          10611.9 10292.2 10165.2 10182.5 10283.3 10404.4 10484.4 11751.6 11479.5 11353.3 11338.2 11389.7
          11461 11509.8 12538.2 12292.9 12166.4 12132.4 12155.4 12198.4 12229.4 12938.5 12705.4 12578.4
          12535.5 12545.4 12575.5 12598.5 812.937 22.7535 -72.7206 442.053 1095.34 1667.65 1992.71 -142.075
          -1076.59 -971.063 -249.734 621.478 1338.76 1733.96 -2017.53 -3410.91 -2861.81 -1538.75 -210.825 786.855
          1312.93 -4496.94 -7174.91 -5467.97 -3074.52 -1104.03 244.14 926.562 -6150.56 -11542.7 -7423.07 -3926.19
          -1506.64 64.8607 850.634 -3509.22 -6258.07 -4802.97 -2681.11 -810.986 594.721 1346.35 -264.478 -1606.84
          -1262.51 -269.885 848.486 1896.32 2510.29 2628.77 1943.96 2007.78 2480.64 3126.88 3799.95 4220.05
          5226.91 4811.68 4808.69 5061.71 5446.85 5855.67 6116.82 7428.21 7120.72 7086.82 7229.85 7466.03
          7713.84 7871.9 9128.48 8867.03 8808.18 8884.81 9031.96 9186.46 9284.38 10274.2 10034.1 9956.79
          9992.67 10088 10191.3 10256.7 10848.3 10617.1 10530.2 10546.4 10617.7 10698.1 10749.3 -5405.92
          -6399.81 -6168.42 -5190.08 -4022.65 -3060.68 -2530.41 -7458.79 -8762.2 -8094.69 -6540.86 -4922.32 -3677.31
          -3013.94 -12005.4 -14697.1 -12435 -9289.11 -6627.69 -4790.2 -3861.05 -19652.1 -29149.7 -20129.1 -13213.5
          -8781.17 -6087.85 -4798.32 -28084.6 -73461.5 -30007.9 -16590.2 -10402.5 -6978.38 -5377.73 -18083.9 -28210.9
          -20255.1 -14287 -9884.03 -6712.27 -5078.61 -10462.6 -13207.1 -11664.8 -9563.41 -7470.9 -5018.25 -3595.93
          -5290.91 -5958.78 -5419.12 -4496.34 -3362.68 -1923.18 -1004.62 -788.722 -1003.15 -684.478 -135.46 561.918
          1366.96 1892.55 2874.27 2711.29 2901.61 3264.57 3717.33 4184.18 4482.22 5574.63 5393.33 5483.5
          5720.67 6021.37 6310.24 6488.71 7325.51 7127.03 7150.3 7305.25 7514.95 7711.39 7830.04 8181.68
          7975.5 7966.26 8080.72 8247.61 8403.99 8497.59 -13745.1 -14901.2 -14137.9 -12375.3 -10462.6 -8953.22
          -8139.15 -17934 -19519.8 -17671.5 -14770.3 -12021.7 -10003.2 -8954.03 -28658.7 -33654.6 -26618.7 -20109.3
          -15210.2 -12024.4 -10466.6 -52807.6 -98307.4 -47588.2 -29382.8 -19925.5 -14722 -12360.7 -98867.3 -966344
          -102180 -41676.6 -24966.5 -17282.3 -13988.4 -46441.2 -97449.1 -51581.3 -37743.1 -26271.5 -18192.8 -14367.4
          -27973.1 -33746.4 -29094.3 -26436.3 -24278.7 -16517 -12622.8 -19293.1 -18444 -16698.9 -15500.3 -14088.9
          -10536.9 -8323.76 -10455.4 -9538.2 -8401.16 -7441.51 -6350.79 -4712.6 -3623.05 -3714.38 -3309.94 -2599.89
          -1869.13 -1091.12 -241.114 308.49 855.795 935.104 1335.21 1842.1 2377.82 2877.04 3183.05 3634.37
          3558.18 3771.37 4118.7 4499.54 4832.8 5029.11 4941.58 4806.26 4934.73 5202.82 5509.75 5774.17
          5927.16 -24422.5 -25467.6 -23879.1 -21079.1 -18204.5 -15996.4 -14823.1 -32643.1 -33120.7 -29511 -24902.7
          -20661.8 -17621.4 -16068.1 -58705.7 -57191.2 -44615.5 -34272.8 -26110.2 -20948.4 -18496.9 -147626 -158859
          -84003.2 -55001.4 -35780.2 -26004.6 -21862.3 -195767 -1.12681e+06 -201466 -106454 -51028.9 -32250.2 -25428.2
          -87696.4 -157449 -104150 -116704 -63424.9 -37293.7 -27585.8 -58787.7 -62616 -57613.5 -65478.1 -89325.8
          -39647.5 -26208.5 -50634.3 -38482.2 -33843.3 -34301.2 -35707.8 -24159.2 -18313.6 -27869.5 -22215.9 -19018
          -17634.4 -16289.4 -12697.6 -10415 -13565.2 -11390.4 -9533.34 -8208.15 -6969.6 -5451.71 -4473.91 -5305.85
          -4560.2 -3563.21 -2626.67 -1750.71 -940.211 -447.328 -789.128 -593.671 -54.5094 581.346 1200.45 1719.59
          2019.89 1214.25 1223.62 1571.27 2059.76 2555.71 2961.25 3190.46 -37042.4 -37703.8 -35081.5 -31086
          -27104.8 -24093 -22506.3 -52998.4 -49378.9 -43239 -36589.5 -30560.5 -26334.5 -24205.3 -139222 -88543.2
          -67672.1 -52004.4 -38854.5 -31151.8 -27636.2 -1.12311e+06 -246861 -165743 -108378 -57188.6 -39341.3 -32746.2
          -1.12746e+06 -1.13069e+06 -1.12889e+06 -662020 -107706 -52172.4 -38991.7 -186551 -234656 -240786 -947247 -171367
          -67957.7 -44350.9 -125128 -109841 -110024 -198576 -887885 -103097 -45306.3 -163301 -74969 -60313.5
          -69774.9 -96537.3 -45033.6 -30256 -64677.1 -41241.8 -32895.7 -31169.5 -30058.1 -21977.1 -17663 -28740.5
          -21754.5 -17592 -15322.2 -13409.7 -10859 -9296.17 -13032.5 -10863.7 -8855.23 -7292.45 -5957.45 -4745.57
          -4026.26 -5726.33 -5044.49 -4021.73 -3001.33 -2085.12 -1345.22 -926.074 -2741.91 -2500.72 -1853.77 -1087.86
          -366.419 200.871 515.088 -48968.4 -50252.2 -47071.1 -42065.3 -37016.1 -33163.8 -31128 -67840 -64467
          -56672.4 -48422.3 -41070.3 -35828.5 -33158.8 -164153 -110396 -82612.9 -64444.3 -50428.2 -41504.5 -37259.7
          -1.13192e+06 -273308 -148332 -101849 -68702.6 -50930.4 -43358.1 -386543 -1.13194e+06 -324785 -197658 -105688
          -65282.1 -50816.9 -222777 -312314 -285579 -376422 -201089 -87019.9 -57436.2 -282166 -191506 -210079
          -1.12222e+06 -1.11934e+06 -132346 -57761.6 -1.11046e+06 -159817 -97176 -140051 -127737 -56979 -38424.5 -162891
          -67901.1 -47979 -45397.3 -39518.2 -28424.7 -23052.5 -51141.1 -33180.6 -25347.8 -21678.8 -18486.8 -15089.1
          -13145.9 -21500.9 -17030.8 -13703.6 -11382.4 -9496.38 -7922.22 -7027.56 -10488.8 -9170.74 -7594.84 -6160.13
          -4936.89 -3992.51 -3471.7 -6401.26 -5890.44 -4925.92 -3878.63 -2936.8 -2219.44 -1829.57 -59887 -63049
          -60346.7 -54749.9 -48450.5 -43488.5 -40851.2 -78986.1 -79321.5 -71358.9 -61818.3 -52866.2 -46350.5 -43014.1
          -172947 -133734 -100756 -79021 -62751.5 -52279.4 -47257.6 -1.12963e+06 -328780 -171560 -116451 -80825
          -61517 -53153.4 -1.13698e+06 -1.13306e+06 -358452 -228087 -114712 -73845 -59277.7 -376235 -464609 -434137
          -1.13277e+06 -197950 -86978.4 -62160.2 -1.13309e+06 -310333 -259362 -1.12311e+06 -201037 -82288.7 -55689.1 -1.1359e+06
          -192666 -113108 -141132 -79777.6 -50530 -39304.5 -196965 -81462.7 -55473.5 -48943.9 -38180.6 -29478.3
          -25124.1 -62652.7 -39938.4 -29922.9 -24874.1 -20625.7 -17196.8 -15332.3 -26706.6 -21066 -16916 -14013.5
          -11726.1 -9996.59 -9055.84 -13735.2 -12064.7 -10137 -8412.28 -6977.6 -5913.9 -5341.97 -9026.77 -8357.66
          -7189.13 -5951.69 -4861.31 -4048.56 -3613.36 -70252.3 -77041 -76829.6 -71738.9 -63058.1 -55939.6 -52206.9
          -86044.9 -96479.1 -90173.1 -79789.8 -67726.8 -58789.2 -54284.7 -135261 -190163 -131059 -100239 -78114.5
          -64457.3 -58113.3 -283438 -1.13624e+06 -276958 -147747 -96243.1 -72303 -62598.2 -393561 -1.13355e+06 -1.13586e+06
          -275959 -122997 -79518.8 -65180.8 -1.13439e+06 -1.2384e+06 -1.13661e+06 -1.12203e+06 -171132 -81389.1 -62425.8 -1.14953e+06
          -333557 -230159 -212125 -102117 -64719.7 -51667 -371565 -153008 -99272.8 -82579.1 -58571.9 -43942
          -37333.2 -169871 -77620.7 -53281.9 -43014.9 -34358.1 -28154.8 -25006.8 -60374.1 -40199.2 -30400.8 -24805.6
          -20634.6 -17631.4 -16052 -27186.1 -22048.2 -17964.6 -14941.5 -12615 -10948.8 -10068.7 -14750.7 -13207.2
          -11299.2 -9533.67 -8066.94 -7001.12 -6436.83 -10153.2 -9530.03 -8366.18 -7105.02 -5989.37 -5163.35 -4724.19
        </DataArray>
        <DataArray type="Float32" Name="saturation" NumberOfComponents="1" format="ascii">
          0.280421 0.280156 0.279995 0.279929 0.279926 0.27995 0.279971 0.280414 0.280145 0.279987 0.279927 0.279932
          0.279962 0.279986 0.280425 0.28015 0.279996 0.279946 0.279963 0.280003 0.280032 0.280495 0.280216 0.280066
          0.280026 0.280054 0.280103 0.280137 0.280668 0.28039 0.280244 0.280209 0.28024 0.280292 0.280327 0.280968
          0.280701 0.280557 0.280517 0.280542 0.280587 0.280619 0.281378 0.28113 0.280989 0.28094 0.28095 0.280983
          0.281008 0.281856 0.281631 0.281495 0.281437 0.281432 0.28145 0.281466 0.28235 0.282149 0.28202 0.281955
          0.281937 0.281943 0.281951 0.282813 0.282632 0.28251 0.282443 0.282415 0.28241 0.282412 0.283201 0.283036
          0.282921 0.282852 0.282817 0.282805 0.282803 0.283479 0.283325 0.283215 0.283145 0.283107 0.28309 0.283085
          0.283624 0.283476 0.283368 0.283298 0.283258 0.283239 0.283233 0.279822 0.279542 0.279388 0.279343 0.279367
          0.279414 0.279447 0.279788 0.279502 0.279352 0.279318 0.279355 0.279412 0.279451 0.279753 0.279455 0.279313
          0.279299 0.279357 0.27943 0.279478 0.279775 0.279465 0.279333 0.279339 0.279418 0.279506 0.279562 0.279927
          0.279613 0.279486 0.279502 0.279588 0.279683 0.279741 0.280253 0.279954 0.279824 0.279827 0.2799 0.279984
          0.280038 0.280718 0.280447 0.280315 0.280296 0.280343 0.280408 0.28045 0.281263 0.281023 0.280893 0.280855
          0.280876 0.280917 0.280947 0.281824 0.281613 0.281489 0.281439 0.281439 0.28146 0.281478 0.282346 0.282159
          0.282042 0.281985 0.28197 0.281976 0.281985 0.282781 0.282613 0.282501 0.28244 0.282416 0.282412 0.282414
          0.283093 0.282937 0.282829 0.282766 0.282736 0.282725 0.282724 0.283255 0.283105 0.282999 0.282935 0.282902
          0.282889 0.282886 0.278639 0.278329 0.278192 0.278196 0.27828 0.278377 0.278438 0.278539 0.278214 0.278088
          0.278118 0.278227 0.278344 0.278416 0.278384 0.27803 0.277926 0.278003 0.278159 0.278309 0.278398 0.278275
          0.27788 0.277807 0.27794 0.278145 0.27833 0.278436 0.278359 0.277934 0.277884 0.278046 0.278273 0.278472
          0.278586 0.278757 0.27837 0.278292 0.278411 0.278604 0.278784 0.278889 0.279366 0.279037 0.278933 0.278991
          0.279126 0.279264 0.279349 0.280067 0.279795 0.279683 0.279694 0.279775 0.279869 0.27993 0.280779 0.280551
          0.28044 0.280424 0.280464 0.280522 0.280562 0.281433 0.281238 0.281132 0.281098 0.281112 0.281144 0.281167
          0.281974 0.281801 0.281699 0.281656 0.281652 0.281666 0.281679 0.282357 0.282198 0.282099 0.28205 0.282037
          0.282041 0.282047 0.282556 0.282404 0.282306 0.282255 0.282236 0.282236 0.282239 0.276835 0.276478 0.276378
          0.276474 0.276661 0.276842 0.27695 0.276596 0.276207 0.276137 0.276291 0.276533 0.276754 0.276882 0.276178
          0.27571 0.27571 0.275983 0.27633 0.276622 0.276785 0.275744 0.275128 0.27525 0.27569 0.276163 0.276533
          0.276733 0.275622 0.27483 0.275093 0.275648 0.276189 0.276599 0.27682 0.276226 0.275606 0.275698 0.276096
          0.276544 0.276914 0.27712 0.277156 0.276709 0.276682 0.2769 0.277203 0.277487 0.277655 0.278161 0.277839
          0.277771 0.277876 0.278063 0.278257 0.278378 0.279147 0.278902 0.278824 0.278869 0.27898 0.279103 0.279183
          0.280036 0.279836 0.279757 0.279767 0.27983 0.279906 0.279956 0.280761 0.280586 0.280506 0.280496 0.280529
          0.280575 0.280606 0.281269 0.28111 0.281028 0.281006 0.281021 0.281049 0.281069 0.281531 0.281378 0.281295
          0.281267 0.281274 0.281293 0.281308 0.274366 0.273947 0.273897 0.274169 0.274517 0.274824 0.275 0.273861
          0.273374 0.273429 0.273804 0.274264 0.274647 0.27486 0.272891 0.272189 0.272464 0.273136 0.273825 0.274352
          0.274633 0.271652 0.270365 0.271179 0.272357 0.27336 0.274064 0.274426 0.270851 0.268373 0.270248 0.271933
          0.273152 0.27397 0.274386 0.27214 0.2708 0.271502 0.272555 0.273512 0.27425 0.274651 0.273797 0.273101
          0.273278 0.273794 0.274385 0.274948 0.275283 0.275348 0.274974 0.275009 0.275266 0.275622 0.275997 0.276232
          0.276804 0.276567 0.276566 0.27671 0.276931 0.277167 0.277318 0.278089 0.277907 0.277887 0.277972 0.278112
          0.27826 0.278354 0.279116 0.278956 0.27892 0.278967 0.279057 0.279151 0.279211 0.279825 0.279675 0.279627
          0.279649 0.279709 0.279773 0.279814 0.280185 0.28004 0.279985 0.279995 0.28004 0.280091 0.280123 0.271209
          0.270732 0.270843 0.271314 0.271885 0.272364 0.272631 0.270232 0.269626 0.269935 0.270665 0.271444 0.272056
          0.272387 0.268169 0.26701 0.267981 0.269385 0.270624 0.271508 0.271965 0.264985 0.261455 0.264797 0.267643
          0.269618 0.270881 0.271504 0.26183 0.249239 0.261157 0.26622 0.268881 0.270458 0.271223 0.265611 0.261786
          0.264748 0.267183 0.269114 0.270584 0.271368 0.268854 0.267646 0.268319 0.26926 0.270226 0.271397 0.272097
          0.271265 0.270943 0.271203 0.271652 0.272213 0.272939 0.273411 0.273523 0.273412 0.273577 0.273864 0.274232
          0.274662 0.274946 0.275483 0.275393 0.275498 0.275698 0.27595 0.276212 0.27638 0.277004 0.2769 0.276952
          0.277088 0.277263 0.277431 0.277535 0.278028 0.277911 0.277924 0.278016 0.278141 0.278258 0.278329 0.27854
          0.278416 0.278411 0.27848 0.27858 0.278675 0.278731 0.267415 0.266923 0.267247 0.268007 0.268854 0.269539
          0.269914 0.265672 0.265037 0.265778 0.266979 0.268162 0.269061 0.269538 0.261628 0.259923 0.262355 0.264805
          0.266794 0.268161 0.268852 0.254227 0.244366 0.255661 0.261374 0.264877 0.266999 0.268013 0.244268 0.207309
          0.243694 0.257387 0.262957 0.265936 0.267311 0.255988 0.244518 0.254557 0.258601 0.26248 0.265567 0.267149
          0.26187 0.259892 0.261475 0.262421 0.263212 0.26625 0.267899 0.265127 0.265466 0.266175 0.266672 0.267268
          0.26882 0.269829 0.268857 0.269271 0.269793 0.27024 0.270756 0.271546 0.272083 0.272038 0.272239 0.272596
          0.272967 0.273366 0.273809 0.274098 0.274389 0.274431 0.274645 0.274919 0.27521 0.275484 0.275653 0.275904
          0.275862 0.275981 0.276175 0.27639 0.276579 0.276691 0.276641 0.276564 0.276637 0.276791 0.276967 0.277119
          0.277208 0.263158 0.262773 0.263361 0.264427 0.265563 0.266465 0.266956 0.260259 0.2601 0.261329 0.262981
          0.264589 0.265798 0.266436 0.252697 0.253081 0.256515 0.259719 0.262539 0.264477 0.265445 0.237095 0.235755
          0.247043 0.253647 0.259228 0.262577 0.264125 0.231937 0.205594 0.231414 0.242976 0.254707 0.260391 0.262788
          0.246321 0.235918 0.24336 0.241346 0.251537 0.258743 0.262008 0.252676 0.251732 0.252973 0.251049 0.24601
          0.258007 0.262503 0.254815 0.258369 0.25986 0.259709 0.259251 0.263256 0.265519 0.261907 0.263989 0.265237
          0.265793 0.266344 0.267867 0.268875 0.267492 0.26844 0.269274 0.269882 0.270462 0.271187 0.271663 0.271258
          0.271621 0.272113 0.272582 0.273027 0.273445 0.273701 0.273523 0.273625 0.273907 0.274243 0.274573 0.274852
          0.275015 0.27458 0.274585 0.274772 0.275037 0.275308 0.275531 0.275657 0.258823 0.258613 0.259454 0.260786
          0.26218 0.263281 0.263879 0.254176 0.25516 0.25692 0.258968 0.260966 0.262457 0.263239 0.238163 0.246159
          0.250538 0.254442 0.258253 0.260764 0.26199 0.205629 0.227754 0.234979 0.24266 0.253082 0.258101 0.260225
          0.205588 0.205557 0.205574 0.212058 0.24277 0.254397 0.25821 0.232816 0.22866 0.228198 0.207541 0.234368
          0.250472 0.256593 0.240096 0.242423 0.242394 0.231677 0.208307 0.243538 0.256314 0.235251 0.248912 0.252296
          0.250058 0.244681 0.256394 0.261071 0.251238 0.257519 0.260175 0.260758 0.261139 0.264081 0.265781 0.261599
          0.264166 0.26581 0.266747 0.267559 0.268676 0.269382 0.267721 0.268674 0.269584 0.27031 0.270944 0.27153
          0.271883 0.271055 0.271385 0.271886 0.272394 0.272857 0.273235 0.273452 0.272524 0.272646 0.272975 0.273368
          0.273743 0.274041 0.274207 0.255274 0.254919 0.255808 0.25727 0.258831 0.260085 0.260772 0.250499 0.251288
          0.253214 0.255427 0.257571 0.259212 0.260087 0.235155 0.242334 0.247321 0.251293 0.254871 0.257439 0.258754
          0.205545 0.225956 0.237008 0.243751 0.250301 0.254734 0.256885 0.220092 0.205545 0.22298 0.231762 0.243103
          0.251095 0.254765 0.229593 0.223646 0.225189 0.220524 0.231448 0.246452 0.253019 0.225398 0.232338 0.230654
          0.205638 0.205666 0.239083 0.252936 0.205752 0.235645 0.244567 0.238055 0.239724 0.253135 0.258387 0.235297
          0.250485 0.255551 0.256288 0.258047 0.26171 0.263671 0.254676 0.26008 0.262817 0.264195 0.265449 0.266844
          0.267672 0.264264 0.266039 0.267432 0.268444 0.26929 0.270015 0.270435 0.268842 0.269439 0.270168 0.270847
          0.271437 0.2719 0.272159 0.270732 0.270976 0.271442 0.271956 0.272426 0.272788 0.272987 0.252402 0.251627
          0.252287 0.253713 0.255419 0.256846 0.257638 0.248062 0.247993 0.249702 0.251926 0.254211 0.256014 0.256987
          0.2342 0.238894 0.243939 0.248055 0.251699 0.254368 0.255755 0.205567 0.222773 0.234348 0.241385 0.247684
          0.251999 0.254135 0.205497 0.205535 0.221328 0.229169 0.241653 0.249155 0.252553 0.220532 0.217184 0.218238
          0.205537 0.231735 0.24646 0.251842 0.205534 0.223755 0.226878 0.205629 0.231453 0.247387 0.253468 0.205508
          0.232228 0.241903 0.237915 0.247899 0.254843 0.258113 0.231826 0.247554 0.253524 0.255281 0.258463 0.261341
          0.262899 0.251723 0.257917 0.261186 0.262991 0.264603 0.265971 0.266742 0.262323 0.264432 0.266086 0.2673
          0.268292 0.269064 0.269491 0.267419 0.268143 0.269 0.269788 0.270458 0.270965 0.27124 0.269505 0.269813
          0.270358 0.270946 0.271474 0.271872 0.272088 0.24995 0.24847 0.248515 0.249618 0.251625 0.253403 0.254388
          0.246641 0.244691 0.245849 0.247896 0.250525 0.252676 0.253835 0.238688 0.232466 0.23926 0.244029 0.248244
          0.25129 0.252847 0.22532 0.205504 0.225723 0.23708 0.244733 0.249493 0.251736 0.219801 0.20553 0.205508
          0.225787 0.240405 0.247952 0.251119 0.205522 0.204599 0.205501 0.20564 0.234393 0.247569 0.251778 0.20538
          0.22253 0.229007 0.230479 0.243705 0.251228 0.254534 0.220736 0.236441 0.244197 0.247328 0.252731 0.256713
          0.258731 0.234529 0.248348 0.2541 0.256987 0.259691 0.261805 0.262942 0.252281 0.257837 0.261021 0.263017
          0.264599 0.265794 0.266442 0.262151 0.264053 0.265659 0.266907 0.267903 0.268636 0.269031 0.266987 0.267646
          0.268481 0.269273 0.269948 0.270447 0.270715 0.268993 0.269275 0.269809 0.270398 0.270928 0.271327 0.271541
        </DataArray>
        <DataArray type="Float32" Name="process rank" NumberOfComponents="1" format="ascii">
          1 1 1 1 1 1 1 1 1 1 1 1
          1 1 1 1 1 1 1 1 1 1 1 1
          1 1 1 1 1 1 1 1 1 1 1 1
          1 1 1 1 1 1 1 1 1 1 1 1
          1 1 1 1 1 1 1 1 1 1 1 1
          1 1 1 1 1 1 1 1 1 1 1 1
          1 1 1 1 1 1 1 1 1 1 1 1
          1 1 1 1 1 1 1 1 1 1 1 1
          1 1 1 1 1 1 1 1 1 1 1 1
          1 1 1 1 1 1 1 1 1 1 1 1
          1 1 1 1 1 1 1 1 1 1 1 1
          1 1 1 1 1 1 1 1 1 1 1 1
          1 1 1 1 1 1 1 1 1 1 1 1
          1 1 1 1 1 1 1 1 1 1 1 1
          1 1 1 1 1 1 1 1 1 1 1 1
          1 1 1 1 1 1 1 1 1 1 1 1
          1 1 1 1 1 1 1 1 1 1 1 1
          1 1 1 1 1 1 1 1 1 1 1 1
          1 1 1 1 1 1 1 1 1 1 1 1
          1 1 1 1 1 1 1 1 1 1 1 1
          1 1 1 1 1 1 1 1 1 1 1 1
          1 1 1 1 1 1 1 1 1 1 1 1
          1 1 1 1 1 1 1 1 1 1 1 1
          1 1 1 1 1 1 1 1 1 1 1 1
          1 1 1 1 1 1 1 1 1 1 1 1
          1 1 1 1 1 1 1 1 1 1 1 1
          1 1 1 1 1 1 1 1 1 1 1 1
          1 1 1 1 1 1 1 1 1 1 1 1
          1 1 1 1 1 1 1 1 1 1 1 1
          1 1 1 1 1 1 1 1 1 1 1 1
          1 1 1 1 1 1 1 1 1 1 1 1
          1 1 1 1 1 1 1 1 1 1 1 1
          1 1 1 1 1 1 1 1 1 1 1 1
          1 1 1 1 1 1 1 1 1 1 1 1
          1 1 1 1 1 1 1 1 1 1 1 1
          1 1 1 1 1 1 1 1 1 1 1 1
          1 1 1 1 1 1 1 1 1 1 1 1
          1 1 1 1 1 1 1 1 1 1 1 1
          1 1 1 1 1 1 1 1 1 1 1 1
          1 1 1 1 1 1 1 1 1 1 1 1
          1 1 1 1 1 1 1 1 1 1 1 1
          1 1 1 1 1 1 1 1 1 1 1 1
          1 1 1 1 1 1 1 1 1 1 1 1
          1 1 1 1 1 1 1 1 1 1 1 1
          1 1 1 1 1 1 1 1 1 1 1 1
          1 1 1 1 1 1 1 1 1 1 1 1
          1 1 1 1 1 1 1 1 1 1 1 1
          1 1 1 1 1 1 1 1 1 1 1 1
          1 1 1 1 1 1 1 1 1 1 1 1
          1 1 1 1 1 1 1 1 1 1 1 1
          1 1 1 1 1 1 1 1 1 1 1 1
          1 1 1 1 1 1 1 1 1 1 1 1
          1 1 1 1 1 1 1 1 1 1 1 1
          1 1 1 1 1 1 1 1 1 1 1 1
          1 1 1 1 1 1 1 1 1 1 1 1
          1 1 1 1 1 1 1 1 1 1 1 1
          1 1 1 1 1 1 1 1 1 1 1 1
          1 1 1 1 1 1 1 1 1 1 1 1
          1 1 1 1 1 1 1 1 1 1 1 1
          1 1 1 1 1 1 1 1 1 1 1 1
          1 1 1 1 1 1 1 1 1 1 1 1
          1 1 1 1 1 1 1 1 1 1 1 1
          1 1 1 1 1 1 1 1 1 1 1 1
          1 1 1 1 1 1 1 1 1 1 1 1
          1 1 1 1 1 1 1 1 1 1 1 1
          1 1 1 1 1 1 1 1 1 1 1 1
          1 1 1 1 1 1 1 1 1 1 1 1
          1 1 1 1 1 1 1 1 1 1 1 1
          1 1 1 1 1 1 1 1 1 1 1 1
          1 1 1 1 1 1 1 1 1 1 1 1
          1 1 1 1 1 1 1 1 1 1 1 1
          1 1 1 1 1 1 1 1 1 1 1 1
          1 1 1 1 1 1 1 1 1 1 1 1
          1 1 1 1 1 1 1 1 1 1 1 1
          1 1 1 1 1 1 1 1 1 1 1 1
          1 1 1 1 1 1 1 1 1 1 1 1
          1 1 1 1 1 1 1 1 1 1 1 1
          1 1 1 1 1 1 1 1 1 1 1 1
          1 1 1 1 1 1 1 1 1 1 1 1
          1 1 1 1 1 1 1 1 1 1 1 1
          1 1 1 1 1 1 1 1 1 1 1 1
          1 1 1 1 1 1 1 1 1 1 1 1
          1 1 1 1 1 1 1 1 1 1 1 1
          1 1 1 1 1 1 1 1 1 1 1 1
          1 1 1 1 1 1 1 1 1 1 1 1
          1 1 1 1 1 1 1 1 1 1 1 1
          1 1 1 1 1 1 1 1 1 1 1 1
          1 1 1 1 1 1 1 1 1 1 1 1
          1 1 1 1 1 1 1 1 1 1 1 1
          1 1 1 1 1 1 1 1 1 1 1 1
          1 1 1 1 1 1 1 1 1 1 1 1
        </DataArray>
      </CellData>
      <Points>
        <DataArray type="Float32" Name="Coordinates" NumberOfComponents="3" format="ascii">
          -0.00307692 -0.04 -0.15 0.00307692 -0.04 -0.15 -0.00307692 -0.0338462 -0.15 0.00307692 -0.0338462 -0.15
          -0.00307692 -0.04 -0.144 0.00307692 -0.04 -0.144 -0.00307692 -0.0338462 -0.144 0.00307692 -0.0338462 -0.144
          0.00923077 -0.04 -0.15 0.00923077 -0.0338462 -0.15 0.00923077 -0.04 -0.144 0.00923077 -0.0338462 -0.144
          0.0153846 -0.04 -0.15 0.0153846 -0.0338462 -0.15 0.0153846 -0.04 -0.144 0.0153846 -0.0338462 -0.144
          0.0215385 -0.04 -0.15 0.0215385 -0.0338462 -0.15 0.0215385 -0.04 -0.144 0.0215385 -0.0338462 -0.144
          0.0276923 -0.04 -0.15 0.0276923 -0.0338462 -0.15 0.0276923 -0.04 -0.144 0.0276923 -0.0338462 -0.144
          0.0338462 -0.04 -0.15 0.0338462 -0.0338462 -0.15 0.0338462 -0.04 -0.144 0.0338462 -0.0338462 -0.144
          0.04 -0.04 -0.15 0.04 -0.0338462 -0.15 0.04 -0.04 -0.144 0.04 -0.0338462 -0.144
          -0.00307692 -0.0276923 -0.15 0.00307692 -0.0276923 -0.15 -0.00307692 -0.0276923 -0.144 0.00307692 -0.0276923 -0.144
          0.00923077 -0.0276923 -0.15 0.00923077 -0.0276923 -0.144 0.0153846 -0.0276923 -0.15 0.0153846 -0.0276923 -0.144
          0.0215385 -0.0276923 -0.15 0.0215385 -0.0276923 -0.144 0.0276923 -0.0276923 -0.15 0.0276923 -0.0276923 -0.144
          0.0338462 -0.0276923 -0.15 0.0338462 -0.0276923 -0.144 0.04 -0.0276923 -0.15 0.04 -0.0276923 -0.144
          -0.00307692 -0.0215385 -0.15 0.00307692 -0.0215385 -0.15 -0.00307692 -0.0215385 -0.144 0.00307692 -0.0215385 -0.144
          0.00923077 -0.0215385 -0.15 0.00923077 -0.0215385 -0.144 0.0153846 -0.0215385 -0.15 0.0153846 -0.0215385 -0.144
          0.0215385 -0.0215385 -0.15 0.0215385 -0.0215385 -0.144 0.0276923 -0.0215385 -0.15 0.0276923 -0.0215385 -0.144
          0.0338462 -0.0215385 -0.15 0.0338462 -0.0215385 -0.144 0.04 -0.0215385 -0.15 0.04 -0.0215385 -0.144
          -0.00307692 -0.0153846 -0.15 0.00307692 -0.0153846 -0.15 -0.00307692 -0.0153846 -0.144 0.00307692 -0.0153846 -0.144
          0.00923077 -0.0153846 -0.15 0.00923077 -0.0153846 -0.144 0.0153846 -0.0153846 -0.15 0.0153846 -0.0153846 -0.144
          0.0215385 -0.0153846 -0.15 0.0215385 -0.0153846 -0.144 0.0276923 -0.0153846 -0.15 0.0276923 -0.0153846 -0.144
          0.0338462 -0.0153846 -0.15 0.0338462 -0.0153846 -0.144 0.04 -0.0153846 -0.15 0.04 -0.0153846 -0.144
          -0.00307692 -0.00923077 -0.15 0.00307692 -0.00923077 -0.15 -0.00307692 -0.00923077 -0.144 0.00307692 -0.00923077 -0.144
          0.00923077 -0.00923077 -0.15 0.00923077 -0.00923077 -0.144 0.0153846 -0.00923077 -0.15 0.0153846 -0.00923077 -0.144
          0.0215385 -0.00923077 -0.15 0.0215385 -0.00923077 -0.144 0.0276923 -0.00923077 -0.15 0.0276923 -0.00923077 -0.144
          0.0338462 -0.00923077 -0.15 0.0338462 -0.00923077 -0.144 0.04 -0.00923077 -0.15 0.04 -0.00923077 -0.144
          -0.00307692 -0.00307692 -0.15 0.00307692 -0.00307692 -0.15 -0.00307692 -0.00307692 -0.144 0.00307692 -0.00307692 -0.144
          0.00923077 -0.00307692 -0.15 0.00923077 -0.00307692 -0.144 0.0153846 -0.00307692 -0.15 0.0153846 -0.00307692 -0.144
          0.0215385 -0.00307692 -0.15 0.0215385 -0.00307692 -0.144 0.0276923 -0.00307692 -0.15 0.0276923 -0.00307692 -0.144
          0.0338462 -0.00307692 -0.15 0.0338462 -0.00307692 -0.144 0.04 -0.00307692 -0.15 0.04 -0.00307692 -0.144
          -0.00307692 0.00307692 -0.15 0.00307692 0.00307692 -0.15 -0.00307692 0.00307692 -0.144 0.00307692 0.00307692 -0.144
          0.00923077 0.00307692 -0.15 0.00923077 0.00307692 -0.144 0.0153846 0.00307692 -0.15 0.0153846 0.00307692 -0.144
          0.0215385 0.00307692 -0.15 0.0215385 0.00307692 -0.144 0.0276923 0.00307692 -0.15 0.0276923 0.00307692 -0.144
          0.0338462 0.00307692 -0.15 0.0338462 0.00307692 -0.144 0.04 0.00307692 -0.15 0.04 0.00307692 -0.144
          -0.00307692 0.00923077 -0.15 0.00307692 0.00923077 -0.15 -0.00307692 0.00923077 -0.144 0.00307692 0.00923077 -0.144
          0.00923077 0.00923077 -0.15 0.00923077 0.00923077 -0.144 0.0153846 0.00923077 -0.15 0.0153846 0.00923077 -0.144
          0.0215385 0.00923077 -0.15 0.0215385 0.00923077 -0.144 0.0276923 0.00923077 -0.15 0.0276923 0.00923077 -0.144
          0.0338462 0.00923077 -0.15 0.0338462 0.00923077 -0.144 0.04 0.00923077 -0.15 0.04 0.00923077 -0.144
          -0.00307692 0.0153846 -0.15 0.00307692 0.0153846 -0.15 -0.00307692 0.0153846 -0.144 0.00307692 0.0153846 -0.144
          0.00923077 0.0153846 -0.15 0.00923077 0.0153846 -0.144 0.0153846 0.0153846 -0.15 0.0153846 0.0153846 -0.144
          0.0215385 0.0153846 -0.15 0.0215385 0.0153846 -0.144 0.0276923 0.0153846 -0.15 0.0276923 0.0153846 -0.144
          0.0338462 0.0153846 -0.15 0.0338462 0.0153846 -0.144 0.04 0.0153846 -0.15 0.04 0.0153846 -0.144
          -0.00307692 0.0215385 -0.15 0.00307692 0.0215385 -0.15 -0.00307692 0.0215385 -0.144 0.00307692 0.0215385 -0.144
          0.00923077 0.0215385 -0.15 0.00923077 0.0215385 -0.144 0.0153846 0.0215385 -0.15 0.0153846 0.0215385 -0.144
          0.0215385 0.0215385 -0.15 0.0215385 0.0215385 -0.144 0.0276923 0.0215385 -0.15 0.0276923 0.0215385 -0.144
          0.0338462 0.0215385 -0.15 0.0338462 0.0215385 -0.144 0.04 0.0215385 -0.15 0.04 0.0215385 -0.144
          -0.00307692 0.0276923 -0.15 0.00307692 0.0276923 -0.15 -0.00307692 0.0276923 -0.144 0.00307692 0.0276923 -0.144
          0.00923077 0.0276923 -0.15 0.00923077 0.0276923 -0.144 0.0153846 0.0276923 -0.15 0.0153846 0.0276923 -0.144