<?xml version="1.0"?><VTKFile type="PolyData" version="0.1" byte_order="LittleEndian">
<PolyData>
<Piece NumberOfLines="1262" NumberOfPoints="1263">
<CellData Scalars=" CellData">
<DataArray type="Float32" Name="radius" NumberOfComponents="1" format="ascii" >
0.1 0.0325 0.0325 0.0325 0.0325 0.0325 0.0325 0.0325 0.0325 0.0325 0.0325 0.0325 0.0325 0.0325 0.0325 0.0325 0.0325 0.0325 0.0325 0.0325 0.0325 0.0325 0.0325 0.0325 0.0325 0.0325 0.0325 0.0325 0.0325 0.0325 0.0325 0.0325 0.0325 0.0325 0.0325 0.0325 0.0325 0.0325 0.0325 0.0325 0.0325 0.0325 0.0325 0.0325 0.0325 0.0325 0.0325 0.0325 0.0325 0.0325 0.0325 0.0325 0.0325 0.0325 0.0325 0.0325 0.0325 0.0325 0.0325 0.0325 0.0325 0.0325 0.0325 0.0325 0.0325 0.0325 0.0325 0.0325 0.0325 0.0325 0.0325 0.0325 0.0325 0.0325 0.0325 0.0325 0.0325 0.0325 0.0325 0.0325 0.0325 0.0325 0.0325 0.0325 0.0325 0.0325 0.0325 0.0325 0.0325 0.0325 0.0325 0.0325 0.0325 0.0325 0.0325 0.0325 0.0325 0.0325 0.0325 0.0325 0.0325 0.0325 0.0325 0.0325 0.0325 0.0325 0.0325 0.0325 0.0325 0.0325 0.0325 0.0325 0.0325 0.0325 0.0325 0.0325 0.0325 0.0325 0.0325 0.0325 0.0325 0.0325 0.0325 0.0325 0.0325 0.0325 0.0325 0.0325 0.0325 0.0325 0.0325 0.0325 0.0325 0.0325 0.0325 0.0325 0.0325 0.0325 0.0325 0.0325 0.0325 0.0325 0.0325 0.0325 0.0325 0.0325 0.0325 0.0325 0.0325 0.0325 0.0325 0.0325 0.0325 0.0325 0.0325 0.0325 0.0325 0.0325 0.0325 0.0325 0.0325 0.0325 0.0325 0.0325 0.0325 0.0325 0.0325 0.0325 0.0325 0.0325 0.0325 0.0325 0.0325 0.0325 0.0325 0.0325 0.0325 0.0325 0.0325 0.0325 0.0325 0.0325 0.0325 0.0325 0.0325 0.0325 0.0325 0.0325 0.0325 0.0325 0.0325 0.0325 0.0325 0.0325 0.0325 0.0325 0.0325 0.0325 0.0325 0.0325 0.0325 0.0325 0.0325 0.0325 0.0325 0.0325 0.0325 0.0325 0.0325 0.0325 0.0325 0.0325 0.0325 0.0325 0.0325 0.0325 0.0325 0.0325 0.0325 0.0325 0.0325 0.0325 0.0325 0.0325 0.0325 0.0325 0.0325 0.0325 0.0325 0.0325 0.0325 0.0325 0.0325 0.0325 0.0325 0.0325 0.0325 0.0325 0.0325 0.0325 0.0325 0.0325 0.0325 0.0325 0.0325 0.0325 0.0325 0.0325 0.0325 0.0325 0.0325 0.0325 0.0325 0.0325 0.0325 0.0325 0.0325 0.0325 0.0325 0.0325 0.0325 0.0325 0.0325 0.0325 0.0325 0.0325 0.0325 0.0325 0.0325 0.0325 0.0325 0.0325 0.0325 0.0325 0.0325 0.0325 0.0325 0.0115 0.0115 0.0115 0.0115 0.0115 0.0115 0.0115 0.0115 0.0115 0.0115 0.0115 0.0115 0.0115 0.0115 0.0115 0.0115 0.0115 0.0115 0.0115 0.0115 0.0115 0.0115 0.0115 0.0115 0.0115 0.0115 0.0115 0.0115 0.0115 0.0115 0.0115 0.0115 0.0115 0.0115 0.0115 0.0115 0.0115 0.0115 0.0115 0.0115 0.0115 0.0115 0.0115 0.0115 0.0115 0.0115 0.0115 0.0115 0.0115 0.0115 0.0115 0.0115 0.0115 0.0115 0.0115 0.0115 0.0115 0.0115 0.0115 0.0115 0.0115 0.0115 0.0115 0.0115 0.0115 0.0115 0.0115 0.0115 0.0115 0.0115 0.0115 0.0115 0.0115 0.0115 0.0115 0.0115 0.0115 0.0115 0.0115 0.0115 0.0115 0.0115 0.0115 0.0115 0.0115 0.0115 0.0115 0.0115 0.0115 0.0115 0.0115 0.0115 0.0115 0.0115 0.0115 0.0115 0.0115 0.0115 0.0115 0.0115 0.0115 0.0115 0.0115 0.0115 0.0115 0.0115 0.0115 0.0115 0.0115 0.0115 0.0115 0.0115 0.0115 0.0115 0.0115 0.0115 0.0115 0.0115 0.0115 0.0115 0.0115 0.0115 0.0115 0.0115 0.0115 0.0115 0.0115 0.0115 0.0115 0.0115 0.0115 0.0115 0.0115 0.0115 0.0115 0.0115 0.0115 0.0115 0.0115 0.0115 0.0115 0.0115 0.0115 0.0115 0.0115 0.0115 0.0115 0.0115 0.0115 0.0115 0.0115 0.0115 0.0115 0.0115 0.0115 0.0115 0.0115 0.0115 0.0115 0.0115 0.0115 0.0115 0.0115 0.0115 0.0115 0.0115 0.0115 0.0115 0.0115 0.0115 0.0115 0.0115 0.0115 0.0115 0.0115 0.0115 0.0115 0.0115 0.0115 0.0115 0.0115 0.0115 0.0115 0.0115 0.0115 0.0115 0.0115 0.0115 0.0115 0.0115 0.0115 0.0115 0.0115 0.0115 0.0115 0.0115 0.0115 0.0115 0.0115 0.0115 0.0115 0.0115 0.0115 0.0115 0.0115 0.0115 0.0115 0.0115 0.0115 0.0115 0.0115 0.0115 0.0115 0.0115 0.0115 0.0115 0.0115 0.0115 0.0115 0.0115 0.0115 0.0115 0.0115 0.0115 0.0115 0.0115 0.0115 0.0115 0.0115 0.0115 0.0115 0.0115 0.0115 0.0115 0.0115 0.0115 0.0115 0.0115 0.0115 0.0115 0.0115 0.0115 0.0115 0.0115 0.0115 0.0115 0.0115 0.0115 0.0115 0.0115 0.0115 0.0115 0.0115 0.0115 0.0115 0.0115 0.0115 0.0115 0.0115 0.0115 0.0115 0.0115 0.0115 0.0115 0.0115 0.0115 0.0115 0.0115 0.0115 0.0115 0.0115 0.0115 0.0115 0.0115 0.0115 0.0115 0.0115 0.0115 0.0115 0.0115 0.0115 0.0115 0.0115 0.0115 0.0115 0.0115 0.0115 0.0115 0.0115 0.0115 0.0115 0.0115 0.0115 0.0115 0.0115 0.0115 0.0115 0.0115 0.0115 0.0115 0.0115 0.0115 0.0115 0.0115 0.0115 0.0115 0.0115 0.0115 0.0115 0.0115 0.0115 0.0115 0.0115 0.0115 0.0115 0.0115 0.0115 0.0115 0.0115 0.0115 0.0115 0.0115 0.0115 0.0115 0.0325 0.0325 0.0325 0.0325 0.0325 0.0325 0.0325 0.0325 0.0325 0.0325 0.0325 0.0325 0.0325 0.0325 0.0325 0.0325 0.0325 0.0325 0.0325 0.0325 0.0325 0.0325 0.0325 0.0325 0.0325 0.0325 0.0325 0.0325 0.0325 0.0325 0.0325 0.0325 0.0325 0.0325 0.0325 0.0325 0.0325 0.0325 0.0325 0.0325 0.0325 0.0325 0.0325 0.0325 0.0325 0.0325 0.0325 0.0325 0.0325 0.0325 0.0325 0.0325 0.0325 0.0325 0.0325 0.0325 0.0325 0.0325 0.0325 0.0325 0.0325 0.0325 0.0325 0.0325 0.0325 0.0325 0.0325 0.0325 0.0325 0.0325 0.0325 0.0325 0.0325 0.0325 0.0325 0.0325 0.0325 0.0325 0.0325 0.0325 0.0325 0.0325 0.0325 0.0325 0.0325 0.0325 0.0325 0.0325 0.0325 0.0325 0.0325 0.0325 0.0325 0.0325 0.0325 0.0325 0.0325 0.0325 0.0325 0.0325 0.0325 0.0325 0.0325 0.0325 0.0325 0.0325 0.0325 0.0325 0.0325 0.0325 0.0325 0.0325 0.0325 0.0325 0.0325 0.0325 0.0325 0.0325 0.0325 0.0325 0.0325 0.0325 0.0325 0.0325 0.0325 0.0325 0.0325 0.0325 0.0325 0.0325 0.0325 0.0325 0.0325 0.0325 0.0325 0.0325 0.0325 0.0325 0.0325 0.0325 0.0325 0.0325 0.0325 0.0325 0.0325 0.0325 0.0325 0.0325 0.0325 0.0325 0.0325 0.0325 0.0325 0.0325 0.0325 0.0325 0.0325 0.0325 0.0325 0.0325 0.0325 0.0325 0.0325 0.0325 0.0325 0.0325 0.0325 0.0325 0.0325 0.0325 0.0325 0.0325 0.0325 0.0325 0.0325 0.0325 0.0325 0.0325 0.0325 0.0325 0.0325 0.0325 0.0325 0.0325 0.0325 0.0325 0.0325 0.0325 0.0325 0.0325 0.0325 0.0325 0.0325 0.0325 0.0325 0.0325 0.0325 0.0325 0.0325 0.0325 0.0325 0.0325 0.0325 0.0325 0.0325 0.0325 0.0325 0.0325 0.0325 0.0325 0.0325 0.0325 0.0325 0.0325 0.0325 0.0325 0.0325 0.0325 0.0325 0.0325 0.0325 0.0325 0.0325 0.0325 0.0325 0.0325 0.0325 0.0325 0.0325 0.0325 0.0325 0.0325 0.0325 0.0325 0.0325 0.0325 0.0325 0.0325 0.0325 0.0325 0.0325 0.0325 0.0325 0.0325 0.0325 0.0325 0.0325 0.0325 0.0325 0.0325 0.0325 0.0325 0.0325 0.0325 0.0325 0.0325 0.0325 0.0325 0.0325 0.0325 0.0325 0.0325 0.0325 0.0325 0.0115 0.0115 0.0115 0.0115 0.0115 0.0115 0.0115 0.0115 0.0115 0.0115 0.0115 0.0115 0.0115 0.0115 0.0115 0.0115 0.0115 0.0115 0.0115 0.0115 0.0115 0.0115 0.0115 0.0115 0.0115 0.0115 0.0115 0.0115 0.0115 0.0115 0.0115 0.0115 0.0115 0.0115 0.0115 0.0115 0.0115 0.0115 0.0115 0.0115 0.0115 0.0115 0.0115 0.0115 0.0115 0.0115 0.0115 0.0115 0.0115 0.0115 0.0115 0.0115 0.0115 0.0115 0.0115 0.0115 0.0115 0.0115 0.0115 0.0115 0.0115 0.0115 0.0115 0.0115 0.0115 0.0115 0.0115 0.0115 0.0115 0.0115 0.0115 0.0115 0.0115 0.0115 0.0115 0.0115 0.0115 0.0115 0.0115 0.0115 0.0115 0.0115 0.0115 0.0115 0.0115 0.0115 0.0115 0.0115 0.0115 0.0115 0.0115 0.0115 0.0115 0.0115 0.0115 0.0115 0.0115 0.0115 0.0115 0.0115 0.0115 0.0115 0.0115 0.0115 0.0115 0.0115 0.0115 0.0115 0.0115 0.0115 0.0115 0.0115 0.0115 0.0115 0.0115 0.0115 0.0115 0.0115 0.0115 0.0115 0.0115 0.0115 0.0115 0.0115 0.0115 0.0115 0.0115 0.0115 0.0115 0.0115 0.0115 0.0115 0.0115 0.0115 0.0115 0.0115 0.0115 0.0115 0.0115 0.0115 0.0115 0.0115 0.0115 0.0115 0.0115 0.0115 0.0115 0.0115 0.0115 0.0115 0.0115 0.0115 0.0115 0.0115 0.0115 0.0115 0.0115 0.0115 0.0115 0.0115 0.0115 0.0115 0.0115 0.0115 0.0115 0.0115 0.0115 0.0115 0.0115 0.0115 0.0115 0.0115 0.0115 0.0115 0.0115 0.0115 0.0115 0.0115 0.0115 0.0115 0.0115 0.0115 0.0115 0.0115 0.0115 0.0115 0.0115 0.0115 0.0115 0.0115 0.0115 0.0115 0.0115 0.0115 0.0115 0.0115 0.0115 0.0115 0.0115 0.0115 0.0115 0.0115 0.0115 0.0115 0.0115 0.0115 0.0115 0.0115 0.0115 0.0115 0.0115 0.0115 0.0115 0.0115 0.0115 0.0115 0.0115 0.0115 0.0115 0.0115 0.0115 0.0115 0.0115 0.0115 0.0115 0.0115 0.0115 0.0115 0.0115 0.0115 0.0115 0.0115 0.0115 0.0115 0.0115 0.0115 0.0115 0.0115 0.0115 0.0115 0.0115 0.0115 0.0115 0.0115 0.0115 0.0115 0.0115 0.0115 0.0115 0.0115 0.0115 0.0115 0.0115 0.0115 0.0115 0.0115 0.0115 0.0115 0.0115 0.0115 0.0115 0.0115 0.0115 0.0115 0.0115 0.0115 0.0115 0.0115 0.0115 0.0115 0.0115 0.0115 0.0115 0.0115 0.0115 0.0115 0.0115 0.0115 0.0115 0.0115 0.0115 0.0115 0.0115 0.0115 0.0115 0.0115 0.0115 0.0115 0.0325 0.0325 0.0325 0.0325 0.0325 0.0325 0.0325 0.0325 0.0325 0.0325 0.0325 0.0325 0.0325 0.0325 0.0325 0.0325 0.0325 0.0325 0.0325 0.0325 0.0325 0.0325 0.0325 0.0325 0.0325 0.0325 0.0325 0.0325 0.0325 0.0325 0.0325 0.0325 0.0325 0.0325 0.0325 0.0325 0.0325 0.0325 0.0325 0.0325 0.0325 0.0325 0.0325 0.0325 0.0325 0.0325 0.0325 0.0325 0.0325 0.0325 0.0325 0.0325 0.0325 0.0325 0.0325 0.0325 0.0325 0.0325 0.0325 0.0325 0.0325 0.0325 0.0325 0.0325 0.0325 0.0325 0.0325 0.0325 0.0325 0.0325 0.0325 0.0325 0.0325 0.0325 0.0325 0.0325 0.0325 0.0325 0.0325 0.0325 0.0325 0.0325 0.0325 0.0325 0.0325 0.0115 0.0115 0.0115 0.0115 0.0115 0.0115 0.0115 0.0115 0.0115 0.0115 0.0115 0.0115 0.0115 0.0115 0.0115 0.0115 0.0115 0.0115 0.0115 0.0115 0.0115 0.0115 0.0115 0.0115 
</DataArray>
<DataArray type="Float32" Name="surface" NumberOfComponents="1" format="ascii" >
1.88496 0.0408407 0.0408407 0.0408407 0.0408407 0.0408407 0.0408407 0.0408407 0.0408407 0.0408407 0.0408407 0.0408407 0.0408407 0.0408407 0.0408407 0.0408407 0.0408407 0.0408407 0.0408407 0.0408407 0.0408407 0.0307075 0.0408407 0.0408407 0.0408407 0.0408407 0.0408407 0.0201547 0.0408407 0.0408407 0.0408407 0.0408407 0.0408407 0.0201547 0.0408407 0.0408407 0.0408407 0.0408407 0.0408407 0.0201547 0.0408407 0.0408407 0.0408407 0.0408407 0.0408407 0.0201547 0.0408407 0.0408407 0.0408407 0.0408407 0.0408407 0.0201547 0.0408407 0.0408407 0.0408407 0.0408407 0.0408407 0.0201547 0.0408407 0.0408407 0.0408407 0.0408407 0.0408407 0.0201547 0.0408407 0.0408407 0.0408407 0.0408407 0.0408407 0.0201547 0.0408407 0.0408407 0.0408407 0.0408407 0.0408407 0.0201547 0.0408407 0.0408407 0.0408407 0.0408407 0.0408407 0.0201547 0.0408407 0.0408407 0.0408407 0.0408407 0.0408407 0.0201547 0.0408407 0.0408407 0.0408407 0.0408407 0.0408407 0.0201547 0.0408407 0.0408407 0.0408407 0.0408407 0.0408407 0.0201547 0.0408407 0.0408407 0.0408407 0.0408407 0.0408407 0.0201547 0.0408407 0.0408407 0.0408407 0.0408407 0.0408407 0.0201547 0.0408407 0.0408407 0.0408407 0.0408407 0.0408407 0.0201547 0.0408407 0.0408407 0.0408407 0.0408407 0.0408407 0.0201547 0.0408407 0.0408407 0.0408407 0.0408407 0.0408407 0.0201547 0.0408407 0.0408407 0.0408407 0.0408407 0.0408407 0.0201547 0.0408407 0.0408407 0.0408407 0.0408407 0.0408407 0.0201547 0.0408407 0.0408407 0.0408407 0.0408407 0.0408407 0.0201547 0.0408407 0.0408407 0.0408407 0.0408407 0.0408407 0.0201547 0.0408407 0.0408407 0.0408407 0.0408407 0.0408407 0.0201547 0.0408407 0.0408407 0.0408407 0.0408407 0.0408407 0.0201547 0.0408407 0.0408407 0.0408407 0.0408407 0.0408407 0.0201547 0.0408407 0.0408407 0.0408407 0.0408407 0.0408407 0.0201547 0.0408407 0.0408407 0.0408407 0.0408407 0.0408407 0.0201547 0.0408407 0.0408407 0.0408407 0.0408407 0.0408407 0.0201547 0.0408407 0.0408407 0.0408407 0.0408407 0.0408407 0.0201547 0.0408407 0.0408407 0.0408407 0.0408407 0.0408407 0.0201547 0.0408407 0.0408407 0.0408407 0.0408407 0.0408407 0.0201547 0.0408407 0.0408407 0.0408407 0.0408407 0.0408407 0.0201547 0.0408407 0.0408407 0.0408407 0.0408407 0.0408407 0.0201547 0.0408407 0.0408407 0.0408407 0.0408407 0.0408407 0.0201547 0.0408407 0.0408407 0.0408407 0.0408407 0.0408407 0.0201547 0.0408407 0.0408407 0.0408407 0.0408407 0.0408407 0.0201547 0.0408407 0.0408407 0.0408407 0.0408407 0.0408407 0.0201547 0.0408407 0.0408407 0.0408407 0.0408407 0.0408407 0.0201547 0.0408407 0.0408407 0.0408407 0.0408407 0.0408407 0.0201547 0.0408407 0.0408407 0.0408407 0.0408407 0.0408407 0.0201547 0.0408407 0.0408407 0.0408407 0.0408407 0.0408407 0.0201547 0.0408407 0.0408407 0.0408407 0.0408407 0.0408407 0.0201547 0.0408407 0.0408407 0.018957 0.0180642 0.0180642 0.0180642 0.0180642 0.0180642 0.0180642 0.0180642 0.0180642 0.0180642 0.0180642 0.0180642 0.0115999 0.0180642 0.0180642 0.0180642 0.0180642 0.0180642 0.0180642 0.0180642 0.0180642 0.0180642 0.0180642 0.0180642 0.00948139 0.0180642 0.0180642 0.0180642 0.0180642 0.0180642 0.0180642 0.0180642 0.0180642 0.0180642 0.0180642 0.0180642 0.0072811 0.0180642 0.0180642 0.0180642 0.0180642 0.0180642 0.0180642 0.0180642 0.0180642 0.0180642 0.0180642 0.0180642 0.00499542 0.0180642 0.0180642 0.0180642 0.0180642 0.0180642 0.0180642 0.0180642 0.0180642 0.0180642 0.0180642 0.0180642 0.00262059 0.0180642 0.0180642 0.0180642 0.0180642 0.0180642 0.0180642 0.0180642 0.0180642 0.0180642 0.0180642 0.0180642 0.000152692 0.0180642 0.0180642 0.0180642 0.0180642 0.0180642 0.0180642 0.0180642 0.0180642 0.0180642 0.0180642 0.0156517 0.0180642 0.0180642 0.0180642 0.0180642 0.0180642 0.0180642 0.0180642 0.0180642 0.0180642 0.0180642 0.0129851 0.0180642 0.0180642 0.0180642 0.0180642 0.0180642 0.0180642 0.0180642 0.0180642 0.0180642 0.0180642 0.0102124 0.0180642 0.0180642 0.0180642 0.0180642 0.0180642 0.0180642 0.0180642 0.0180642 0.0180642 0.0180642 0.00732874 0.0180642 0.0180642 0.0180642 0.0180642 0.0180642 0.0180642 0.0180642 0.0180642 0.0180642 0.0180642 0.00432924 0.0180642 0.0180642 0.0180642 0.0180642 0.0180642 0.0180642 0.0180642 0.0180642 0.0180642 0.0180642 0.00120857 0.0180642 0.0180642 0.0180642 0.0180642 0.0180642 0.0179391 0.0180642 0.0180642 0.0180642 0.0161504 0.0180642 0.0180642 0.0180642 0.0180642 0.0180642 0.0180642 0.0180642 0.0180642 0.0180642 0.0126454 0.0180642 0.0180642 0.0180642 0.0180642 0.0180642 0.0180642 0.0180642 0.0180642 0.0180642 0.00912687 0.0180642 0.0180642 0.0180642 0.0180642 0.0180642 0.0180642 0.0180642 0.0180642 0.0180642 0.0054632 0.0180642 0.0180642 0.0180642 0.0180642 0.0180642 0.0180642 0.0180642 0.0180642 0.0180642 0.00164765 0.0180642 0.0180642 0.0180642 0.0180642 0.0180642 0.0180642 0.0180642 0.0180642 0.0157373 0.0180642 0.0180642 0.0180642 0.0180642 0.0180642 0.0180642 0.0180642 0.0180642 0.0115962 0.0180642 0.0180642 0.0180642 0.0180642 0.0180642 0.0180642 0.0180642 0.0180642 0.0072807 0.0180642 0.0180642 0.0180642 0.0180642 0.0180642 0.0180642 0.0180642 0.0180642 0.00278249 0.0180642 0.0180642 0.0180642 0.0180642 0.0180642 0.0180642 0.0180642 0.0161569 0.0180642 0.0180642 0.0180642 0.0180642 0.0180642 0.0180642 0.0180642 0.0112665 0.0180642 0.0180642 0.0180642 0.0180642 0.0180642 0.0180642 0.0180642 0.00616559 0.0180642 0.0180642 0.0180642 0.0180642 0.0180642 0.0180642 0.0180642 0.00084397 0.0180642 0.0180642 0.0180642 0.0180642 0.0180642 0.0180642 0.013355 0.0180642 0.0180642 0.0180642 0.0180642 0.0180642 0.0180642 0.00755884 0.0180642 0.0180642 0.0180642 0.0180642 0.0180642 0.0180642 0.00150773 0.0180642 0.0180642 0.0180642 0.0180642 0.0180642 0.0132531 0.0180642 0.0180642 0.0180642 0.0180642 0.0180642 0.00665313 0.0180642 0.0180642 0.0180642 0.0180642 0.0178221 0.0180642 0.0180642 0.0180642 0.0180642 0.0106166 0.0180642 0.0180642 0.0180642 0.0180642 0.00308502 0.0180642 0.0180642 0.0180642 0.0132748 0.0180642 0.0180642 0.0180642 0.00503999 0.0180642 0.0180642 0.0144901 0.0180642 0.0180642 0.00547718 0.0180642 0.0141085 0.0180642 0.00423356 0.0119573 0.00112638 0.0408407 0.0408407 0.0408407 0.0408407 0.0408407 0.0408407 0.0408407 0.0408407 0.0408407 0.0408407 0.0408407 0.0408407 0.0408407 0.0408407 0.0408407 0.0408407 0.0408407 0.0408407 0.0408407 0.0408407 0.0408407 0.0408407 0.0408407 0.0408407 0.0408407 0.00745998 0.0408407 0.0408407 0.0408407 0.0408407 0.0408407 0.0201547 0.0408407 0.0408407 0.0408407 0.0408407 0.0408407 0.0201547 0.0408407 0.0408407 0.0408407 0.0408407 0.0408407 0.0201547 0.0408407 0.0408407 0.0408407 0.0408407 0.0408407 0.0201547 0.0408407 0.0408407 0.0408407 0.0408407 0.0408407 0.0201547 0.0408407 0.0408407 0.0408407 0.0408407 0.0408407 0.0201547 0.0408407 0.0408407 0.0408407 0.0408407 0.0408407 0.0201547 0.0408407 0.0408407 0.0408407 0.0408407 0.0408407 0.0201547 0.0408407 0.0408407 0.0408407 0.0408407 0.0408407 0.0201547 0.0408407 0.0408407 0.0408407 0.0408407 0.0408407 0.0201547 0.0408407 0.0408407 0.0408407 0.0408407 0.0408407 0.0201547 0.0408407 0.0408407 0.0408407 0.0408407 0.0408407 0.0201547 0.0408407 0.0408407 0.0408407 0.0408407 0.0408407 0.0201547 0.0408407 0.0408407 0.0408407 0.0408407 0.0408407 0.0201547 0.0408407 0.0408407 0.0408407 0.0408407 0.0408407 0.0201547 0.0408407 0.0408407 0.0408407 0.0408407 0.0408407 0.0201547 0.0408407 0.0408407 0.0408407 0.0408407 0.0408407 0.0201547 0.0408407 0.0408407 0.0408407 0.0408407 0.0408407 0.0201547 0.0408407 0.0408407 0.0408407 0.0408407 0.0408407 0.0201547 0.0408407 0.0408407 0.0408407 0.0408407 0.0408407 0.0201547 0.0408407 0.0408407 0.0408407 0.0408407 0.0408407 0.0201547 0.0408407 0.0408407 0.0408407 0.0408407 0.0408407 0.0201547 0.0408407 0.0408407 0.0408407 0.0408407 0.0408407 0.0201547 0.0408407 0.0408407 0.0408407 0.0408407 0.0408407 0.0201547 0.0408407 0.0408407 0.0408407 0.0408407 0.0408407 0.0201547 0.0408407 0.0408407 0.0408407 0.0408407 0.0408407 0.0201547 0.0408407 0.0408407 0.0408407 0.0408407 0.0408407 0.0201547 0.0408407 0.0408407 0.0408407 0.0408407 0.0408407 0.0201547 0.0408407 0.0408407 0.0408407 0.0408407 0.0408407 0.0201547 0.0408407 0.0408407 0.0408407 0.0408407 0.0408407 0.0201547 0.0408407 0.0408407 0.0408407 0.0408407 0.0408407 0.0201547 0.0408407 0.0408407 0.0408407 0.0408407 0.0408407 0.0201547 0.0408407 0.0408407 0.0408407 0.0408407 0.0408407 0.0201547 0.0408407 0.0408407 0.0408407 0.0408407 0.0408407 0.0201547 0.0408407 0.0408407 0.0408407 0.0408407 0.0408407 0.0201547 0.0408407 0.0408407 0.0408407 0.0408407 0.0408407 0.0201547 0.0408407 0.0408407 0.0408407 0.0408407 0.0408407 0.0201547 0.0408407 0.0408407 0.0408407 0.0408407 0.0408407 0.0201547 0.0408407 0.0408407 0.0408407 0.0408407 0.0408407 0.0201547 0.0408407 0.0408407 0.0408407 0.0353449 0.0180642 0.0180642 0.0180642 0.0180642 0.0180642 0.0180642 0.0180642 0.0180642 0.0180642 0.0180642 0.0180642 0.00445121 0.0180642 0.0180642 0.0180642 0.0180642 0.0180642 0.0180642 0.0180642 0.0180642 0.0180642 0.0180642 0.0180642 0.00208333 0.0180642 0.0180642 0.0180642 0.0180642 0.0180642 0.0180642 0.0180642 0.0180642 0.0180642 0.0180642 0.0176878 0.0180642 0.0180642 0.0180642 0.0180642 0.0180642 0.0180642 0.0180642 0.0180642 0.0180642 0.0180642 0.0151324 0.0180642 0.0180642 0.0180642 0.0180642 0.0180642 0.0180642 0.0180642 0.0180642 0.0180642 0.0180642 0.012477 0.0180642 0.0180642 0.0180642 0.0180642 0.0180642 0.0180642 0.0180642 0.0180642 0.0180642 0.0180642 0.00971708 0.0180642 0.0180642 0.0180642 0.0180642 0.0180642 0.0180642 0.0180642 0.0180642 0.0180642 0.0180642 0.00684811 0.0180642 0.0180642 0.0180642 0.0180642 0.0180642 0.0180642 0.0180642 0.0180642 0.0180642 0.0180642 0.00386517 0.0180642 0.0180642 0.0180642 0.0180642 0.0180642 0.0180642 0.0180642 0.0180642 0.0180642 0.0180642 0.000763132 0.0180642 0.0180642 0.0180642 0.0180642 0.0180642 0.0180642 0.0180642 0.0180642 0.0180642 0.0156008 0.0180642 0.0180642 0.0180642 0.0180642 0.0180642 0.0180642 0.0180642 0.0180642 0.0180642 0.0122441 0.0180642 0.0180642 0.0180642 0.0180642 0.0180642 0.0180642 0.0180642 0.0180642 0.0180642 0.00875144 0.0180642 0.0180642 0.0180642 0.0180642 0.0180642 0.0180642 0.0180642 0.0180642 0.0180642 0.00511643 0.0180642 0.0180642 0.0180642 0.0180642 0.0180642 0.0180642 0.0180642 0.0180642 0.0180642 0.00133254 0.0180642 0.0180642 0.0180642 0.0180642 0.0180642 0.0180642 0.0180642 0.0180642 0.015457 0.0180642 0.0180642 0.0180642 0.0180642 0.0180642 0.0180642 0.0180642 0.0180642 0.0113543 0.0180642 0.0180642 0.0180642 0.0180642 0.0180642 0.0180642 0.0180642 0.0180642 0.00708095 0.0180642 0.0180642 0.0180642 0.0180642 0.0180642 0.0180642 0.0180642 0.0180642 0.00262887 0.0180642 0.0180642 0.0180642 0.0180642 0.0180642 0.0180642 0.0180642 0.0160538 0.0180642 0.0180642 0.0180642 0.0180642 0.0180642 0.0180642 0.0180642 0.0112184 0.0180642 0.0180642 0.0180642 0.0180642 0.0180642 0.0180642 0.0180642 0.00617761 0.0180642 0.0180642 0.0180642 0.0180642 0.0180642 0.0180642 0.0180642 0.00092145 0.0180642 0.0180642 0.0180642 0.0180642 0.0180642 0.0180642 0.0135037 0.0180642 0.0180642 0.0180642 0.0180642 0.0180642 0.0180642 0.00778501 0.0180642 0.0180642 0.0180642 0.0180642 0.0180642 0.0180642 0.00181802 0.0180642 0.0180642 0.0180642 0.0180642 0.0180642 0.0136546 0.0180642 0.0180642 0.0180642 0.0180642 0.0180642 0.0071537 0.0180642 0.0180642 0.0180642 0.0180642 0.0180642 0.000365753 0.0180642 0.0180642 0.0180642 0.0180642 0.0113406 0.0180642 0.0180642 0.0180642 0.0180642 0.00393479 0.0180642 0.0180642 0.0180642 0.0142606 0.0180642 0.0180642 0.0180642 0.00617288 0.0180642 0.0180642 0.015782 0.0180642 0.0180642 0.00694078 0.0180642 0.0157576 0.0180642 0.0060829 0.0140227 0.00342507 0.0408407 0.0408407 0.0408407 0.0408407 0.0408407 0.0408407 0.0408407 0.0408407 0.0408407 0.0408407 0.0408407 0.0408407 0.0408407 0.0408407 0.0376597 0.0408407 0.0408407 0.0408407 0.0408407 0.0408407 0.0201547 0.0408407 0.0408407 0.0408407 0.0408407 0.0408407 0.0201547 0.0408407 0.0408407 0.0408407 0.0408407 0.0408407 0.0201547 0.0408407 0.0408407 0.0408407 0.0408407 0.0408407 0.0201547 0.0408407 0.0408407 0.0408407 0.0408407 0.0408407 0.0201547 0.0408407 0.0408407 0.0408407 0.0408407 0.0408407 0.0201547 0.0408407 0.0408407 0.0408407 0.0408407 0.0408407 0.0201547 0.0408407 0.0408407 0.0408407 0.0408407 0.0408407 0.0201547 0.0408407 0.0408407 0.0408407 0.0408407 0.0408407 0.0201547 0.0408407 0.0408407 0.0408407 0.0408407 0.0408407 0.0201547 0.0408407 0.0408407 0.0408407 0.0408407 0.0408407 0.0201547 0.0408407 0.0408407 0.0408407 0.0224099 0.0180642 0.0180642 0.0180642 0.0170577 0.0180642 0.0180642 0.0180642 0.010296 0.0180642 0.0180642 0.0180642 0.00327404 0.0180642 0.0180642 0.0140446 0.0180642 0.0180642 0.0064674 0.0180642 0.0166583 0.0180642 0.00847599 0.0180349 0.00919237 
</DataArray>

</CellData>
<Points>
<DataArray type="Float32" Name="Coordinates" NumberOfComponents="3" format="ascii" >