<?xml version="1.0"?><VTKFile type="PolyData" version="0.1" byte_order="LittleEndian">
<PolyData>
<Piece NumberOfLines="237" NumberOfPoints="238">
<CellData Scalars=" CellData">
<DataArray type="Float32" Name="radius" NumberOfComponents="1" format="ascii" >
0.1 0.0325 0.0325 0.0325 0.0325 0.0325 0.0325 0.0325 0.0325 0.0325 0.0325 0.0325 0.0325 0.0325 0.0325 0.0325 0.0325 0.0325 0.0325 0.0325 0.0325 0.0325 0.0325 0.0325 0.0325 0.0325 0.0325 0.0325 0.0325 0.0325 0.0325 0.0325 0.0325 0.0325 0.0325 0.0325 0.0325 0.0325 0.0325 0.0325 0.0325 0.0325 0.0325 0.0325 0.0325 0.0325 0.0325 0.0325 0.0325 0.0325 0.0325 0.0325 0.0325 0.0325 0.0325 0.0325 0.0325 0.0325 0.0325 0.0325 0.0325 0.0325 0.0325 0.0325 0.0325 0.0325 0.0325 0.0325 0.0325 0.0325 0.0325 0.0325 0.0325 0.0325 0.0325 0.0325 0.0325 0.0325 0.0325 0.0325 0.0325 0.0325 0.0325 0.0325 0.0325 0.0325 0.0325 0.0325 0.0325 0.0325 0.0325 0.0325 0.0325 0.0325 0.0325 0.0325 0.0325 0.0325 0.0325 0.0115 0.0115 0.0115 0.0115 0.0115 0.0115 0.0115 0.0115 0.0115 0.0115 0.0115 0.0115 0.0115 0.0115 0.0115 0.0115 0.0115 0.0115 0.0115 0.0115 0.0115 0.0115 0.0115 0.0115 0.0115 0.0115 0.0115 0.0115 0.0115 0.0115 0.0115 0.0115 0.0115 0.0115 0.0325 0.0325 0.0325 0.0325 0.0325 0.0325 0.0325 0.0325 0.0325 0.0325 0.0325 0.0325 0.0325 0.0325 0.0325 0.0325 0.0325 0.0325 0.0325 0.0325 0.0325 0.0325 0.0325 0.0325 0.0325 0.0325 0.0325 0.0325 0.0325 0.0325 0.0325 0.0325 0.0325 0.0325 0.0325 0.0325 0.0325 0.0325 0.0325 0.0325 0.0325 0.0325 0.0325 0.0325 0.0325 0.0325 0.0325 0.0325 0.0325 0.0325 0.0325 0.0325 0.0325 0.0325 0.0325 0.0325 0.0325 0.0325 0.0325 0.0325 0.0325 0.0325 0.0325 0.0325 0.0325 0.0325 0.0325 0.0325 0.0325 0.0325 0.0325 0.0325 0.0325 0.0325 0.0325 0.0325 0.0325 0.0325 0.0325 0.0325 0.0325 0.0325 0.0325 0.0325 0.0325 0.0115 0.0115 0.0115 0.0115 0.0115 0.0115 0.0115 0.0115 0.0115 0.0115 0.0115 0.0115 0.0115 0.0115 0.0115 0.0115 0.0115 0.0115 0.0115 
</DataArray>
<DataArray type="Float32" Name="surface" NumberOfComponents="1" format="ascii" >
1.88496 0.0408407 0.0408407 0.0408407 0.0408407 0.0408407 0.0408407 0.0408407 0.0408407 0.0408407 0.0408407 0.0408407 0.0408407 0.0408407 0.0408407 0.0408407 0.0408407 0.0408407 0.0408407 0.0408407 0.0408407 0.0307075 0.0408407 0.0408407 0.0408407 0.0408407 0.0408407 0.0201547 0.0408407 0.0408407 0.0408407 0.0408407 0.0408407 0.0201547 0.0408407 0.0408407 0.0408407 0.0408407 0.0408407 0.0201547 0.0408407 0.0408407 0.0408407 0.0408407 0.0408407 0.0201547 0.0408407 0.0408407 0.0408407 0.0408407 0.0408407 0.0201547 0.0408407 0.0408407 0.0408407 0.0408407 0.0408407 0.0201547 0.0408407 0.0408407 0.0408407 0.0408407 0.0408407 0.0201547 0.0408407 0.0408407 0.0408407 0.0408407 0.0408407 0.0201547 0.0408407 0.0408407 0.0408407 0.0408407 0.0408407 0.0201547 0.0408407 0.0408407 0.0408407 0.0408407 0.0408407 0.0201547 0.0408407 0.0408407 0.0408407 0.0408407 0.0408407 0.0201547 0.0408407 0.0408407 0.0408407 0.0408407 0.0408407 0.0201547 0.0408407 0.0408407 0.0408407 0.0408407 0.0353533 0.0180642 0.0180642 0.0180642 0.0180642 0.00966569 0.0180642 0.0180642 0.0180642 0.0180642 0.00323786 0.0180642 0.0180642 0.0180642 0.014626 0.0180642 0.0180642 0.0180642 0.00769082 0.0180642 0.0180642 0.0180642 0.000485208 0.0180642 0.0180642 0.0110613 0.0180642 0.0180642 0.00327839 0.0180642 0.0132515 0.0180642 0.00483854 0.0141533 0.00505234 0.0408407 0.0408407 0.0408407 0.0408407 0.0408407 0.0408407 0.0408407 0.0408407 0.0408407 0.0408407 0.0408407 0.0408407 0.0408407 0.0408407 0.0408407 0.0408407 0.0408407 0.0408407 0.0408407 0.0408407 0.0408407 0.0408407 0.0408407 0.0408407 0.0408407 0.00745998 0.0408407 0.0408407 0.0408407 0.0408407 0.0408407 0.0201547 0.0408407 0.0408407 0.0408407 0.0408407 0.0408407 0.0201547 0.0408407 0.0408407 0.0408407 0.0408407 0.0408407 0.0201547 0.0408407 0.0408407 0.0408407 0.0408407 0.0408407 0.0201547 0.0408407 0.0408407 0.0408407 0.0408407 0.0408407 0.0201547 0.0408407 0.0408407 0.0408407 0.0408407 0.0408407 0.0201547 0.0408407 0.0408407 0.0408407 0.0408407 0.0408407 0.0201547 0.0408407 0.0408407 0.0408407 0.0408407 0.0408407 0.0201547 0.0408407 0.0408407 0.0408407 0.0408407 0.0408407 0.0201547 0.0408407 0.0408407 0.0408407 0.0408407 0.0120581 0.0180642 0.0180642 0.0180642 0.00603961 0.0180642 0.0180642 0.0169192 0.0180642 0.0180642 0.00945625 0.0180642 0.0180642 0.00170264 0.0180642 0.0117097 0.0180642 0.00333579 0.012695 0.00364427 
</DataArray>

</CellData>
<Points>
<DataArray type="Float32" Name="Coordinates" NumberOfComponents="3" format="ascii" >
0 0 0 0 0 -3 -0.0584062 0.187708 -2.9632 -0.105232 0.381773 -2.9511 -0.150708 0.576428 -2.94467 -0.188158 0.77289 -2.94421 -0.218745 0.969627 -2.96315 -0.244868 1.16424 -3.00112 -0.301949 1.35171 -3.0411 -0.349455 1.5413 -3.08354 -0.39135 1.73498 -3.11058 -0.432029 1.92702 -3.14886 -0.46547 2.11744 -3.20007 -0.501127 2.31033 -3.23907 -0.529108 2.50608 -3.26908 -0.562961 2.70133 -3.29612 -0.598961 2.89663 -3.31985 -0.630126 3.09351 -3.33611 -0.655475 3.2895 -3.36685 -0.688104 3.48448 -3.39716 -0.707407 3.68182 -3.42331 -0.729455 3.87993 -3.43967 -0.751502 4.02804 -3.45345 -0.798989 4.22134 -3.47296 -0.812151 4.41983 -3.49363 -0.83158 4.6187 -3.5024 -0.862088 4.81635 -3.50321 -0.897107 5.00514 -3.55919 -0.914869 5.09526 -3.59532 -0.96588 5.27519 -3.66617 -1.01736 5.45525 -3.73638 -1.06699 5.63223 -3.81521 -1.1204 5.8027 -3.90515 -1.18558 5.97398 -3.98525 -1.20884 6.05745 -4.0325 -1.25557 6.23677 -4.10773 -1.31807 6.41119 -4.18305 -1.37875 6.58723 -4.25602 -1.44363 6.76016 -4.33274 -1.50884 6.93165 -4.41236 -1.53875 7.01416 -4.45753 -1.6033 7.18301 -4.5431 -1.65572 7.35992 -4.62026 -1.73258 7.52281 -4.7072 -1.83654 7.6499 -4.82141 -1.91357 7.79941 -4.92962 -1.95741 7.86345 -4.99061 -2.04028 7.99584 -5.11554 -2.11175 8.13294 -5.2424 -2.18719 8.26518 -5.37209 -2.26431 8.38532 -5.51216 -2.33789 8.5014 -5.65745 -2.37316 8.55901 -5.72942 -2.43323 8.67344 -5.88206 -2.4947 8.78753 -6.03439 -2.57405 8.88134 -6.1922 -2.65271 8.97255 -6.35187 -2.73396 9.07113 -6.50575 -2.76303 9.11535 -6.58906 -2.79606 9.19371 -6.77008 -2.83306 9.2803 -6.94653 -2.88458 9.34123 -7.12992 -2.94445 9.40196 -7.31083 -2.98135 9.48564 -7.48869 -2.99664 9.52028 -7.57984 -3.04512 9.60242 -7.75563 -3.08975 9.6797 -7.93462 -3.13564 9.75824 -8.11273 -3.16624 9.84586 -8.28989 -3.19131 9.92974 -8.46972 -3.19643 9.96574 -8.56148 -3.21432 10.0278 -8.75075 -3.23308 10.0965 -8.93765 -3.26605 10.1226 -9.13318 -3.30329 10.1647 -9.32512 -3.34755 10.2053 -9.5159 -3.3667 10.2276 -9.6101 -3.37595 10.2585 -9.80749 -3.38695 10.2873 -10.0051 -3.39819 10.3145 -10.2029 -3.45691 10.3139 -10.3941 -3.51547 10.3132 -10.5853 -3.54164 10.3046 -10.6801 -3.59008 10.3079 -10.8741 -3.62353 10.3232 -11.0707 -3.68253 10.3343 -11.2615 -3.73806 10.3471 -11.4532 -3.79025 10.36 -11.6459 -3.80852 10.3628 -11.7428 -3.81102 10.3676 -11.9427 -3.82434 10.3653 -12.1423 -3.86054 10.3569 -12.3388 -3.89093 10.3459 -12.5362 -3.91541 10.3349 -12.7344 -3.93341 10.341 -12.8312 -3.97321 10.343 -13.0272 -4.01076 10.3498 -13.2235 -4.04473 10.3528 -13.4206 -4.07562 10.3626 -13.6179 -4.10197 10.3756 -13.7886 -0.72918 4.05417 -3.70108 -0.707638 4.08376 -3.94839 -0.689968 4.10526 -4.19683 -0.694464 4.11621 -4.44655 -0.689151 4.11293 -4.58018 -0.667069 5.06463 -3.60787 -0.418663 5.06784 -3.63587 -0.171799 5.06941 -3.67531 0.0710717 5.1126 -3.71591 0.114586 5.12078 -3.7228 -1.14518 6.29808 -4.05577 -1.0799 6.53821 -4.0798 -0.950408 6.7501 -4.10869 -0.843679 6.92103 -4.12775 -1.37359 7.17651 -4.36339 -1.19325 7.31974 -4.2661 -1.01838 7.47242 -4.17331 -0.9483 7.55205 -4.1646 -2.19661 7.85254 -5.06247 -2.40862 7.85767 -5.19485 -2.59694 7.91297 -5.34969 -2.60164 7.91458 -5.35421 -2.53433 8.72674 -5.63783 -2.69833 8.8962 -5.55484 -2.79843 8.99964 -5.50272 -2.80433 9.17736 -6.8277 -2.86005 9.24876 -7.06072 -2.86869 9.26395 -7.10259 -2.89416 9.47296 -7.80291 -2.83645 9.43824 -7.97349 -3.33556 9.84797 -8.73257 -3.37386 9.82952 -8.7843 -3.55406 10.2769 -9.58123 -3.51611 10.285 -10.7422 -0.188828 -0.045004 -2.95185 -0.375072 -0.096148 -2.89991 -0.562008 -0.156432 -2.86222 -0.755342 -0.204126 -2.84358 -0.948465 -0.253793 -2.8282 -1.14688 -0.278348 -2.82276 -1.34483 -0.306874 -2.82218 -1.54201 -0.340343 -2.82225 -1.73799 -0.379699 -2.81552 -1.92681 -0.444921 -2.82517 -2.11594 -0.509216 -2.83499 -2.29874 -0.590346 -2.83433 -2.4836 -0.666431 -2.84059 -2.67162 -0.734373 -2.84621 -2.85437 -0.814146 -2.83084 -3.03676 -0.895649 -2.82126 -3.22033 -0.974819 -2.82715 -3.40505 -1.05006 -2.84198 -3.5912 -1.12144 -2.85786 -3.75454 -1.23551 -2.87539 -3.91235 -1.35533 -2.9026 -4.03742 -1.5016 -2.95704 -4.14847 -1.65993 -3.008 -4.25415 -1.81524 -3.07664 -4.34042 -1.98026 -3.1496 -4.35585 -2.01073 -3.16258 -4.43927 -2.17714 -3.23571 -4.53155 -2.33347 -3.31966 -4.59253 -2.50319 -3.40611 -4.63688 -2.67286 -3.50226 -4.67078 -2.83593 -3.61299 -4.68452 -2.91311 -3.67295 -4.68411 -3.08631 -3.77296 -4.66277 -3.2567 -3.87549 -4.61743 -3.41604 -3.98754 -4.56914 -3.57017 -4.10549 -4.53777 -3.7283 -4.22386 -4.52038 -3.80499 -4.28351 -4.47831 -3.95444 -4.40957 -4.44307 -4.10671 -4.53437 -4.40283 -4.21965 -4.69444 -4.37097 -4.3254 -4.86118 -4.33197 -4.43036 -5.0269 -4.31452 -4.48312 -5.10847 -4.28302 -4.59102 -5.27389 -4.25147 -4.69823 -5.43976 -4.2374 -4.81063 -5.60459 -4.21589 -4.91489 -5.7739 -4.19904 -5.01857 -5.9441 -4.17881 -5.07478 -6.02267 -4.14604 -5.18643 -6.18533 -4.12871 -5.29724 -6.35092 -4.09561 -5.40015 -6.51919 -4.0907 -5.49228 -6.69664 -4.08397 -5.56905 -6.88119 -4.06961 -5.60328 -6.97265 -4.04125 -5.67223 -7.15823 -4.01656 -5.72748 -7.34886 -3.99665 -5.78352 -7.53981 -4.00794 -5.83509 -7.73272 -4.01797 -5.8894 -7.92494 -4.02662 -5.90519 -8.02198 -4.04667 -5.91153 -8.22087 -4.05161 -5.91489 -8.42078 -4.06189 -5.91817 -8.62049 -4.07516 -5.92028 -8.82004 -4.08805 -5.93108 -9.01933 -4.09141 -5.93473 -9.11791 -4.09724 -5.93385 -9.31782 -4.1071 -5.9375 -9.51754 -4.11815 -5.94103 -9.71721 -4.11835 -5.9404 -9.9172 -4.0997 -5.95412 -10.1159 -4.09151 -5.95715 -10.2142 -4.07421 -5.9748 -10.4126 -4.06634 -5.9971 -10.6112 -4.05703 -6.00754 -10.8107 -4.0427 -6.03589 -11.0082 -4.02536 -6.03057 -11.2074 -4.01656 -6.02862 -11.3057 -3.99726 -6.02802 -11.5047 -3.96934 -6.02374 -11.7027 -3.94362 -6.02007 -11.901 -3.9187 -6.01402 -12.0994 -3.91341 -6.01066 -12.1581 -4.52188 -1.97727 -3.34646 -4.68059 -1.92868 -3.53341 -4.82791 -1.9007 -3.73345 -4.87831 -1.88959 -3.7992 -4.45992 -2.82353 -3.60948 -4.23576 -2.73442 -3.5438 -4.02936 -2.65256 -3.46947 -4.65499 -3.60373 -4.34573 -4.77503 -3.39963 -4.42594 -4.83215 -3.29374 -4.47745 -4.55681 -4.49496 -5.04802 -4.80246 -4.5269 -5.01437 -4.8253 -4.52831 -5.00871 -4.21717 -5.31664 -5.97234 -4.23748 -5.47651 -5.95527 -4.17333 -5.44132 -7.13237 -4.1883 -5.41248 -7.16516 -4.05208 -5.89386 -8.19545 -4.09978 -5.98399 -9.12476 
</DataArray>
</Points>
<Lines>
<DataArray type="Int32" Name="connectivity" NumberOfComponents="1" format="ascii" >
0 1 1 2 2 3 3 4 4 5 5 6 6 7 7 8 8 9 9 10 10 11 11 12 12 13 13 14 14 15 15 16 16 17 17 18 18 19 19 20 20 21 21 22 22 23 23 24 24 25 25 26 26 27 27 28 28 29 29 30 30 31 31 32 32 33 33 34 34 35 35 36 36 37 37 38 38 39 39 40 40 41 41 42 42 43 43 44 44 45 45 46 46 47 47 48 48 49 49 50 50 51 51 52 52 53 53 54 54 55 55 56 56 57 57 58 58 59 59 60 60 61 61 62 62 63 63 64 64 65 65 66 66 67 67 68 68 69 69 70 70 71 71 72 72 73 73 74 74 75 75 76 76 77 77 78 78 79 79 80 80 81 81 82 82 83 83 84 84 85 85 86 86 87 87 88 88 89 89 90 90 91 91 92 92 93 93 94 94 95 95 96 96 97 97 98 98 99 22 100 100 101 101 102 102 103 103 104 28 105 105 106 106 107 107 108 108 109 34 110 110 111 111 112 112 113 40 114 114 115 115 116 116 117 46 118 118 119 119 120 120 121 52 122 122 123 123 124 58 125 125 126 126 127 64 128 128 129 70 130 130 131 76 132 82 133 1 134 134 135 135 136 136 137 137 138 138 139 139 140 140 141 141 142 142 143 143 144 144 145 145 146 146 147 147 148 148 149 149 150 150 151 151 152 152 153 153 154 154 155 155 156 156 157 157 158 158 159 159 160 160 161 161 162 162 163 163 164 164 165 165 166 166 167 167 168 168 169 169 170 170 171 171 172 172 173 173 174 174 175 175 176 176 177 177 178 178 179 179 180 180 181 181 182 182 183 183 184 184 185 185 186 186 187 187 188 188 189 189 190 190 191 191 192 192 193 193 194 194 195 195 196 196 197 197 198 198 199 199 200 200 201 201 202 202 203 203 204 204 205 205 206 206 207 207 208 208 209 209 210 210 211 211 212 212 213 213 214 214 215 215 216 216 217 217 218 159 219 219 220 220 221 221 222 165 223 223 224 224 225 171 226 226 227 227 228 177 229 229 230 230 231 183 232 232 233 189 234 234 235 195 236 201 237 
</DataArray>
<DataArray type="Int32" Name="offsets" NumberOfComponents="1" format="ascii" >
2 4 6 8 10 12 14 16 18 20 22 24 26 28 30 32 34 36 38 40 42 44 46 48 50 52 54 56 58 60 62 64 66 68 70 72 74 76 78 80 82 84 86 88 90 92 94 96 98 100 102 104 106 108 110 112 114 116 118 120 122 124 126 128 130 132 134 136 138 140 142 144 146 148 150 152 154 156 158 160 162 164 166 168 170 172 174 176 178 180 182 184 186 188 190 192 194 196 198 200 202 204 206 208 210 212 214 216 218 220 222 224 226 228 230 232 234 236 238 240 242 244 246 248 250 252 254 256 258 260 262 264 266 268 270 272 274 276 278 280 282 284 286 288 290 292 294 296 298 300 302 304 306 308 310 312 314 316 318 320 322 324 326 328 330 332 334 336 338 340 342 344 346 348 350 352 354 356 358 360 362 364 366 368 370 372 374 376 378 380 382 384 386 388 390 392 394 396 398 400 402 404 406 408 410 412 414 416 418 420 422 424 426 428 430 432 434 436 438 440 442 444 446 448 450 452 454 456 458 460 462 464 466 468 470 472 474 
</DataArray>

</Lines>
</Piece>
</PolyData>
</VTKFile>
