<?xml version="1.0"?><VTKFile type="PolyData" version="0.1" byte_order="LittleEndian">
<PolyData>
<Piece NumberOfLines="4331" NumberOfPoints="4332">
<CellData Scalars=" CellData">
<DataArray type="Float32" Name="radius" NumberOfComponents="1" format="ascii" >
0.1 0.0325 0.0325 0.0325 0.0325 0.0325 0.0325 0.0325 0.0325 0.0325 0.0325 0.0325 0.0325 0.0325 0.0325 0.0325 0.0325 0.0325 0.0325 0.0325 0.0325 0.0325 0.0325 0.0325 0.0325 0.0325 0.0325 0.0325 0.0325 0.0325 0.0325 0.0325 0.0325 0.0325 0.0325 0.0325 0.0325 0.0325 0.0325 0.0325 0.0325 0.0325 0.0325 0.0325 0.0325 0.0325 0.0325 0.0325 0.0325 0.0325 0.0325 0.0325 0.0325 0.0325 0.0325 0.0325 0.0325 0.0325 0.0325 0.0325 0.0325 0.0325 0.0325 0.0325 0.0325 0.0325 0.0325 0.0325 0.0325 0.0325 0.0325 0.0325 0.0325 0.0325 0.0325 0.0325 0.0325 0.0325 0.0325 0.0325 0.0325 0.0325 0.0325 0.0325 0.0325 0.0325 0.0325 0.0325 0.0325 0.0325 0.0325 0.0325 0.0325 0.0325 0.0325 0.0325 0.0325 0.0325 0.0325 0.0325 0.0325 0.0325 0.0325 0.0325 0.0325 0.0325 0.0325 0.0325 0.0325 0.0325 0.0325 0.0325 0.0325 0.0325 0.0325 0.0325 0.0325 0.0325 0.0325 0.0325 0.0325 0.0325 0.0325 0.0325 0.0325 0.0325 0.0325 0.0325 0.0325 0.0325 0.0325 0.0325 0.0325 0.0325 0.0325 0.0325 0.0325 0.0325 0.0325 0.0325 0.0325 0.0325 0.0325 0.0325 0.0325 0.0325 0.0325 0.0325 0.0325 0.0325 0.0325 0.0325 0.0325 0.0325 0.0325 0.0325 0.0325 0.0325 0.0325 0.0325 0.0325 0.0325 0.0325 0.0325 0.0325 0.0325 0.0325 0.0325 0.0325 0.0325 0.0325 0.0325 0.0325 0.0325 0.0325 0.0325 0.0325 0.0325 0.0325 0.0325 0.0325 0.0325 0.0325 0.0325 0.0325 0.0325 0.0325 0.0325 0.0325 0.0325 0.0325 0.0325 0.0325 0.0325 0.0325 0.0325 0.0325 0.0325 0.0325 0.0325 0.0325 0.0325 0.0325 0.0325 0.0325 0.0325 0.0325 0.0325 0.0325 0.0325 0.0325 0.0325 0.0325 0.0325 0.0325 0.0325 0.0325 0.0325 0.0325 0.0325 0.0325 0.0325 0.0325 0.0325 0.0325 0.0325 0.0325 0.0325 0.0325 0.0325 0.0325 0.0325 0.0325 0.0325 0.0325 0.0325 0.0325 0.0325 0.0325 0.0325 0.0325 0.0325 0.0325 0.0325 0.0325 0.0325 0.0325 0.0325 0.0325 0.0325 0.0325 0.0325 0.0325 0.0325 0.0325 0.0325 0.0325 0.0325 0.0325 0.0325 0.0325 0.0325 0.0325 0.0325 0.0325 0.0325 0.0325 0.0325 0.0325 0.0325 0.0325 0.0325 0.0325 0.0325 0.0325 0.0325 0.0325 0.0325 0.0325 0.0325 0.0325 0.0325 0.0325 0.0325 0.0325 0.0325 0.0325 0.0325 0.0325 0.0325 0.0325 0.0325 0.0325 0.0325 0.0325 0.0325 0.0325 0.0325 0.0325 0.0325 0.0325 0.0325 0.0325 0.0325 0.0325 0.0325 0.0325 0.0325 0.0325 0.0325 0.0325 0.0325 0.0325 0.0325 0.0325 0.0325 0.0325 0.0325 0.0325 0.0325 0.0325 0.0325 0.0325 0.0325 0.0325 0.0325 0.0325 0.0325 0.0325 0.0325 0.0325 0.0325 0.0325 0.0325 0.0325 0.0325 0.0325 0.0325 0.0325 0.0325 0.0325 0.0325 0.0325 0.0325 0.0325 0.0325 0.0325 0.0325 0.0325 0.0325 0.0325 0.0325 0.0325 0.0325 0.0325 0.0325 0.0325 0.0325 0.0325 0.0325 0.0325 0.0325 0.0325 0.0325 0.0325 0.0325 0.0325 0.0325 0.0325 0.0325 0.0325 0.0325 0.0325 0.0325 0.0325 0.0325 0.0325 0.0325 0.0325 0.0325 0.0325 0.0325 0.0325 0.0325 0.0325 0.0325 0.0325 0.0325 0.0325 0.0325 0.0325 0.0325 0.0325 0.0325 0.0325 0.0325 0.0325 0.0325 0.0325 0.0325 0.0325 0.0325 0.0325 0.0325 0.0325 0.0325 0.0325 0.0325 0.0325 0.0325 0.0325 0.0325 0.0325 0.0325 0.0325 0.0325 0.0325 0.0325 0.0325 0.0325 0.0325 0.0325 0.0325 0.0325 0.0325 0.0325 0.0325 0.0325 0.0325 0.0325 0.0325 0.0325 0.0325 0.0325 0.0325 0.0325 0.0325 0.0325 0.0325 0.0325 0.0325 0.0325 0.0325 0.0325 0.0325 0.0325 0.0325 0.0325 0.0325 0.0325 0.0325 0.0325 0.0325 0.0325 0.0325 0.0325 0.0325 0.0325 0.0325 0.0325 0.0325 0.0325 0.0325 0.0325 0.0325 0.0325 0.0325 0.0325 0.0325 0.0325 0.0325 0.0325 0.0325 0.0325 0.0325 0.0325 0.0325 0.0325 0.0325 0.0325 0.0325 0.0325 0.0325 0.0325 0.0325 0.0325 0.0325 0.0325 0.0325 0.0325 0.0325 0.0325 0.0325 0.0325 0.0325 0.0325 0.0325 0.0325 0.0325 0.0325 0.0325 0.0325 0.0325 0.0325 0.0325 0.0325 0.0325 0.0325 0.0325 0.0325 0.0325 0.0325 0.0325 0.0325 0.0325 0.0325 0.0325 0.0325 0.0325 0.0325 0.0325 0.0325 0.0115 0.0115 0.0115 0.0115 0.0115 0.0115 0.0115 0.0115 0.0115 0.0115 0.0115 0.0115 0.0115 0.0115 0.0115 0.0115 0.0115 0.0115 0.0115 0.0115 0.0115 0.0115 0.0115 0.0115 0.0115 0.0115 0.0115 0.0115 0.0115 0.0115 0.0115 0.0115 0.0115 0.0115 0.0115 0.0115 0.0115 0.0115 0.0115 0.0115 0.0115 0.0115 0.0115 0.0115 0.0115 0.0115 0.0115 0.0115 0.0115 0.0115 0.0115 0.0115 0.0115 0.0115 0.0115 0.0115 0.0115 0.0115 0.0115 0.0115 0.0115 0.0115 0.0115 0.0115 0.0115 0.0115 0.0115 0.0115 0.0115 0.0115 0.0115 0.0115 0.0115 0.0115 0.0115 0.0115 0.0115 0.0115 0.0115 0.0115 0.0115 0.0115 0.0115 0.0115 0.0115 0.0115 0.0115 0.0115 0.0115 0.0115 0.0115 0.0115 0.0115 0.0115 0.0115 0.0115 0.0115 0.0115 0.0115 0.0115 0.0115 0.0115 0.0115 0.0115 0.0115 0.0115 0.0115 0.0115 0.0115 0.0115 0.0115 0.0115 0.0115 0.0115 0.0115 0.0115 0.0115 0.0115 0.0115 0.0115 0.0115 0.0115 0.0115 0.0115 0.0115 0.0115 0.0115 0.0115 0.0115 0.0115 0.0115 0.0115 0.0115 0.0115 0.0115 0.0115 0.0115 0.0115 0.0115 0.0115 0.0115 0.0115 0.0115 0.0115 0.0115 0.0115 0.0115 0.0115 0.0115 0.0115 0.0115 0.0115 0.0115 0.0115 0.0115 0.0115 0.0115 0.0115 0.0115 0.0115 0.0115 0.0115 0.0115 0.0115 0.0115 0.0115 0.0115 0.0115 0.0115 0.0115 0.0115 0.0115 0.0115 0.0115 0.0115 0.0115 0.0115 0.0115 0.0115 0.0115 0.0115 0.0115 0.0115 0.0115 0.0115 0.0115 0.0115 0.0115 0.0115 0.0115 0.0115 0.0115 0.0115 0.0115 0.0115 0.0115 0.0115 0.0115 0.0115 0.0115 0.0115 0.0115 0.0115 0.0115 0.0115 0.0115 0.0115 0.0115 0.0115 0.0115 0.0115 0.0115 0.0115 0.0115 0.0115 0.0115 0.0115 0.0115 0.0115 0.0115 0.0115 0.0115 0.0115 0.0115 0.0115 0.0115 0.0115 0.0115 0.0115 0.0115 0.0115 0.0115 0.0115 0.0115 0.0115 0.0115 0.0115 0.0115 0.0115 0.0115 0.0115 0.0115 0.0115 0.0115 0.0115 0.0115 0.0115 0.0115 0.0115 0.0115 0.0115 0.0115 0.0115 0.0115 0.0115 0.0115 0.0115 0.0115 0.0115 0.0115 0.0115 0.0115 0.0115 0.0115 0.0115 0.0115 0.0115 0.0115 0.0115 0.0115 0.0115 0.0115 0.0115 0.0115 0.0115 0.0115 0.0115 0.0115 0.0115 0.0115 0.0115 0.0115 0.0115 0.0115 0.0115 0.0115 0.0115 0.0115 0.0115 0.0115 0.0115 0.0115 0.0115 0.0115 0.0115 0.0115 0.0115 0.0115 0.0115 0.0115 0.0115 0.0115 0.0115 0.0115 0.0115 0.0115 0.0115 0.0115 0.0115 0.0115 0.0115 0.0115 0.0115 0.0115 0.0115 0.0115 0.0115 0.0115 0.0115 0.0115 0.0115 0.0115 0.0115 0.0115 0.0115 0.0115 0.0115 0.0115 0.0115 0.0115 0.0115 0.0115 0.0115 0.0115 0.0115 0.0115 0.0115 0.0115 0.0115 0.0115 0.0115 0.0115 0.0115 0.0115 0.0115 0.0115 0.0115 0.0115 0.0115 0.0115 0.0115 0.0115 0.0115 0.0115 0.0115 0.0115 0.0115 0.0115 0.0115 0.0115 0.0115 0.0115 0.0115 0.0115 0.0115 0.0115 0.0115 0.0115 0.0115 0.0115 0.0115 0.0115 0.0115 0.0115 0.0115 0.0115 0.0115 0.0115 0.0115 0.0115 0.0115 0.0115 0.0115 0.0115 0.0115 0.0115 0.0115 0.0115 0.0115 0.0115 0.0115 0.0115 0.0115 0.0115 0.0115 0.0115 0.0115 0.0115 0.0115 0.0115 0.0115 0.0115 0.0115 0.0115 0.0115 0.0115 0.0115 0.0115 0.0115 0.0115 0.0115 0.0115 0.0115 0.0115 0.0115 0.0115 0.0115 0.0115 0.0115 0.0115 0.0115 0.0115 0.0115 0.0115 0.0115 0.0115 0.0115 0.0115 0.0115 0.0115 0.0115 0.0115 0.0115 0.0115 0.0115 0.0115 0.0115 0.0115 0.0115 0.0115 0.0115 0.0115 0.0115 0.0115 0.0115 0.0115 0.0115 0.0115 0.0115 0.0115 0.0115 0.0115 0.0115 0.0115 0.0115 0.0115 0.0115 0.0115 0.0115 0.0115 0.0115 0.0115 0.0115 0.0115 0.0115 0.0115 0.0115 0.0115 0.0115 0.0115 0.0115 0.0115 0.0115 0.0115 0.0115 0.0115 0.0115 0.0115 0.0115 0.0115 0.0115 0.0115 0.0115 0.0115 0.0115 0.0115 0.0115 0.0115 0.0115 0.0115 0.0115 0.0115 0.0115 0.0115 0.0115 0.0115 0.0115 0.0115 0.0115 0.0115 0.0115 0.0115 0.0115 0.0115 0.0115 0.0115 0.0115 0.0115 0.0115 0.0115 0.0115 0.0115 0.0115 0.0115 0.0115 0.0115 0.0115 0.0115 0.0115 0.0115 0.0115 0.0115 0.0115 0.0115 0.0115 0.0115 0.0115 0.0115 0.0115 0.0115 0.0115 0.0115 0.0115 0.0115 0.0115 0.0115 0.0115 0.0115 0.0115 0.0115 0.0115 0.0115 0.0115 0.0115 0.0115 0.0115 0.0115 0.0115 0.0115 0.0115 0.0115 0.0115 0.0115 0.0115 0.0115 0.0115 0.0115 0.0115 0.0115 0.0115 0.0115 0.0115 0.0115 0.0115 0.0115 0.0115 0.0115 0.0115 0.0115 0.0115 0.0115 0.0115 0.0115 0.0115 0.0115 0.0115 0.0115 0.0115 0.0115 0.0115 0.0115 0.0115 0.0115 0.0115 0.0115 0.0115 0.0115 0.0115 0.0115 0.0115 0.0115 0.0115 0.0115 0.0115 0.0115 0.0115 0.0115 0.0115 0.0115 0.0115 0.0115 0.0115 0.0115 0.0115 0.0115 0.0115 0.0115 0.0115 0.0115 0.0115 0.0115 0.0115 0.0115 0.0115 0.0115 0.0115 0.0115 0.0115 0.0115 0.0115 0.0115 0.0115 0.0115 0.0115 0.0115 0.0115 0.0115 0.0115 0.0115 0.0115 0.0115 0.0115 0.0115 0.0115 0.0115 0.0115 0.0115 0.0115 0.0115 0.0115 0.0115 0.0115 0.0115 0.0115 0.0115 0.0115 0.0115 0.0115 0.0115 0.0115 0.0115 0.0115 0.0115 0.0115 0.0115 0.0115 0.0115 0.0115 0.0115 0.0115 0.0115 0.0115 0.0115 0.0115 0.0115 0.0115 0.0115 0.0115 0.0115 0.0115 0.0115 0.0115 0.0115 0.0115 0.0115 0.0115 0.0115 0.0115 0.0115 0.0115 0.0115 0.0115 0.0115 0.0115 0.0115 0.0115 0.0115 0.0115 0.0115 0.0115 0.0115 0.0115 0.0115 0.0115 0.0115 0.0115 0.0115 0.0115 0.0115 0.0115 0.0115 0.0115 0.0115 0.0115 0.0115 0.0115 0.0115 0.0115 0.0115 0.0115 0.0115 0.0115 0.0115 0.0115 0.0115 0.0115 0.0115 0.0115 0.0115 0.0115 0.0115 0.0115 0.0115 0.0115 0.0115 0.0115 0.0115 0.0115 0.0115 0.0115 0.0115 0.0115 0.0115 0.0115 0.0115 0.0115 0.0115 0.0115 0.0115 0.0115 0.0115 0.0115 0.0115 0.0115 0.0115 0.0115 0.0115 0.0115 0.0115 0.0115 0.0115 0.0115 0.0115 0.0115 0.0115 0.0115 0.0115 0.0115 0.0115 0.0115 0.0115 0.0115 0.0115 0.0115 0.0115 0.0115 0.0115 0.0115 0.0115 0.0115 0.0115 0.0115 0.0115 0.0115 0.0115 0.0115 0.0115 0.0115 0.0115 0.0115 0.0115 0.0115 0.0115 0.0115 0.0115 0.0115 0.0115 0.0115 0.0115 0.0115 0.0115 0.0115 0.0115 0.0115 0.0115 0.0115 0.0115 0.0115 0.0115 0.0115 0.0115 0.0115 0.0115 0.0115 0.0115 0.0115 0.0115 0.0115 0.0115 0.0115 0.0115 0.0115 0.0115 0.0115 0.0115 0.0115 0.0115 0.0115 0.0115 0.0115 0.0115 0.0115 0.0115 0.0115 0.0115 0.0115 0.0115 0.0115 0.0115 0.0115 0.0115 0.0115 0.0115 0.0115 0.0115 0.0115 0.0115 0.0115 0.0115 0.0115 0.0115 0.0115 0.0115 0.0115 0.0115 0.0115 0.0115 0.0115 0.0115 0.0115 0.0115 0.0115 0.0115 0.0115 0.0115 0.0115 0.0115 0.0115 0.0115 0.0115 0.0115 0.0115 0.0115 0.0115 0.0115 0.0115 0.0115 0.0115 0.0115 0.0115 0.0115 0.0115 0.0115 0.0115 0.0115 0.0115 0.0115 0.0115 0.0115 0.0115 0.0115 0.0115 0.0115 0.0115 0.0115 0.0115 0.0115 0.0115 0.0115 0.0115 0.0115 0.0115 0.0115 0.0115 0.0115 0.0115 0.0115 0.0115 0.0115 0.0115 0.0115 0.0115 0.0115 0.0115 0.0115 0.0115 0.0115 0.0115 0.0115 0.0115 0.0115 0.0115 0.0115 0.0115 0.0115 0.0115 0.0115 0.0115 0.0115 0.0115 0.0115 0.0115 0.0115 0.0115 0.0115 0.0115 0.0115 0.0115 0.0115 0.0115 0.0115 0.0115 0.0115 0.0115 0.0115 0.0115 0.0115 0.0115 0.0115 0.0115 0.0115 0.0115 0.0115 0.0115 0.0115 0.0115 0.0115 0.0115 0.0115 0.0115 0.0115 0.0115 0.0115 0.0115 0.0115 0.0115 0.0115 0.0115 0.0115 0.0115 0.0115 0.0115 0.0115 0.0325 0.0325 0.0325 0.0325 0.0325 0.0325 0.0325 0.0325 0.0325 0.0325 0.0325 0.0325 0.0325 0.0325 0.0325 0.0325 0.0325 0.0325 0.0325 0.0325 0.0325 0.0325 0.0325 0.0325 0.0325 0.0325 0.0325 0.0325 0.0325 0.0325 0.0325 0.0325 0.0325 0.0325 0.0325 0.0325 0.0325 0.0325 0.0325 0.0325 0.0325 0.0325 0.0325 0.0325 0.0325 0.0325 0.0325 0.0325 0.0325 0.0325 0.0325 0.0325 0.0325 0.0325 0.0325 0.0325 0.0325 0.0325 0.0325 0.0325 0.0325 0.0325 0.0325 0.0325 0.0325 0.0325 0.0325 0.0325 0.0325 0.0325 0.0325 0.0325 0.0325 0.0325 0.0325 0.0325 0.0325 0.0325 0.0325 0.0325 0.0325 0.0325 0.0325 0.0325 0.0325 0.0325 0.0325 0.0325 0.0325 0.0325 0.0325 0.0325 0.0325 0.0325 0.0325 0.0325 0.0325 0.0325 0.0325 0.0325 0.0325 0.0325 0.0325 0.0325 0.0325 0.0325 0.0325 0.0325 0.0325 0.0325 0.0325 0.0325 0.0325 0.0325 0.0325 0.0325 0.0325 0.0325 0.0325 0.0325 0.0325 0.0325 0.0325 0.0325 0.0325 0.0325 0.0325 0.0325 0.0325 0.0325 0.0325 0.0325 0.0325 0.0325 0.0325 0.0325 0.0325 0.0325 0.0325 0.0325 0.0325 0.0325 0.0325 0.0325 0.0325 0.0325 0.0325 0.0325 0.0325 0.0325 0.0325 0.0325 0.0325 0.0325 0.0325 0.0325 0.0325 0.0325 0.0325 0.0325 0.0325 0.0325 0.0325 0.0325 0.0325 0.0325 0.0325 0.0325 0.0325 0.0325 0.0325 0.0325 0.0325 0.0325 0.0325 0.0325 0.0325 0.0325 0.0325 0.0325 0.0325 0.0325 0.0325 0.0325 0.0325 0.0325 0.0325 0.0325 0.0325 0.0325 0.0325 0.0325 0.0325 0.0325 0.0325 0.0325 0.0325 0.0325 0.0325 0.0325 0.0325 0.0325 0.0325 0.0325 0.0325 0.0325 0.0325 0.0325 0.0325 0.0325 0.0325 0.0325 0.0325 0.0325 0.0325 0.0325 0.0325 0.0325 0.0325 0.0325 0.0325 0.0325 0.0325 0.0325 0.0325 0.0325 0.0325 0.0325 0.0325 0.0325 0.0325 0.0325 0.0325 0.0325 0.0325 0.0325 0.0325 0.0325 0.0325 0.0325 0.0325 0.0325 0.0325 0.0325 0.0325 0.0325 0.0325 0.0325 0.0325 0.0325 0.0325 0.0325 0.0325 0.0325 0.0325 0.0325 0.0325 0.0325 0.0325 0.0325 0.0325 0.0325 0.0325 0.0325 0.0325 0.0325 0.0325 0.0325 0.0325 0.0325 0.0325 0.0325 0.0325 0.0325 0.0325 0.0325 0.0325 0.0325 0.0325 0.0325 0.0325 0.0325 0.0325 0.0325 0.0325 0.0325 0.0325 0.0325 0.0325 0.0325 0.0325 0.0325 0.0325 0.0325 0.0325 0.0325 0.0325 0.0325 0.0325 0.0325 0.0325 0.0325 0.0325 0.0325 0.0325 0.0325 0.0325 0.0325 0.0325 0.0325 0.0325 0.0325 0.0325 0.0325 0.0325 0.0325 0.0325 0.0325 0.0325 0.0325 0.0325 0.0325 0.0325 0.0325 0.0325 0.0325 0.0325 0.0325 0.0325 0.0325 0.0325 0.0325 0.0325 0.0325 0.0325 0.0325 0.0325 0.0325 0.0325 0.0325 0.0325 0.0325 0.0325 0.0325 0.0325 0.0325 0.0325 0.0325 0.0325 0.0325 0.0325 0.0325 0.0325 0.0325 0.0325 0.0325 0.0325 0.0325 0.0325 0.0325 0.0325 0.0325 0.0325 0.0325 0.0325 0.0325 0.0325 0.0325 0.0325 0.0325 0.0325 0.0325 0.0325 0.0325 0.0325 0.0325 0.0325 0.0325 0.0325 0.0325 0.0325 0.0325 0.0325 0.0325 0.0325 0.0325 0.0325 0.0325 0.0325 0.0325 0.0325 0.0325 0.0325 0.0325 0.0325 0.0325 0.0325 0.0325 0.0325 0.0325 0.0325 0.0325 0.0325 0.0325 0.0325 0.0325 0.0325 0.0325 0.0325 0.0325 0.0325 0.0325 0.0325 0.0325 0.0325 0.0325 0.0325 0.0325 0.0325 0.0325 0.0325 0.0325 0.0325 0.0325 0.0325 0.0325 0.0325 0.0325 0.0325 0.0325 0.0325 0.0325 0.0325 0.0325 0.0325 0.0325 0.0325 0.0325 0.0325 0.0325 0.0325 0.0325 0.0325 0.0325 0.0325 0.0325 0.0325 0.0325 0.0325 0.0325 0.0325 0.0325 0.0325 0.0325 0.0325 0.0325 0.0325 0.0325 0.0325 0.0325 0.0325 0.0325 0.0325 0.0325 0.0325 0.0325 0.0325 0.0325 0.0325 0.0325 0.0325 0.0325 0.0325 0.0325 0.0325 0.0325 0.0325 0.0325 0.0325 0.0325 0.0325 0.0325 0.0325 0.0325 0.0325 0.0325 0.0325 0.0325 0.0325 0.0325 0.0325 0.0325 0.0325 0.0325 0.0325 0.0325 0.0325 0.0325 0.0325 0.0325 0.0325 0.0325 0.0325 0.0325 0.0325 0.0325 0.0325 0.0325 0.0325 0.0325 0.0325 0.0325 0.0325 0.0115 0.0115 0.0115 0.0115 0.0115 0.0115 0.0115 0.0115 0.0115 0.0115 0.0115 0.0115 0.0115 0.0115 0.0115 0.0115 0.0115 0.0115 0.0115 0.0115 0.0115 0.0115 0.0115 0.0115 0.0115 0.0115 0.0115 0.0115 0.0115 0.0115 0.0115 0.0115 0.0115 0.0115 0.0115 0.0115 0.0115 0.0115 0.0115 0.0115 0.0115 0.0115 0.0115 0.0115 0.0115 0.0115 0.0115 0.0115 0.0115 0.0115 0.0115 0.0115 0.0115 0.0115 0.0115 0.0115 0.0115 0.0115 0.0115 0.0115 0.0115 0.0115 0.0115 0.0115 0.0115 0.0115 0.0115 0.0115 0.0115 0.0115 0.0115 0.0115 0.0115 0.0115 0.0115 0.0115 0.0115 0.0115 0.0115 0.0115 0.0115 0.0115 0.0115 0.0115 0.0115 0.0115 0.0115 0.0115 0.0115 0.0115 0.0115 0.0115 0.0115 0.0115 0.0115 0.0115 0.0115 0.0115 0.0115 0.0115 0.0115 0.0115 0.0115 0.0115 0.0115 0.0115 0.0115 0.0115 0.0115 0.0115 0.0115 0.0115 0.0115 0.0115 0.0115 0.0115 0.0115 0.0115 0.0115 0.0115 0.0115 0.0115 0.0115 0.0115 0.0115 0.0115 0.0115 0.0115 0.0115 0.0115 0.0115 0.0115 0.0115 0.0115 0.0115 0.0115 0.0115 0.0115 0.0115 0.0115 0.0115 0.0115 0.0115 0.0115 0.0115 0.0115 0.0115 0.0115 0.0115 0.0115 0.0115 0.0115 0.0115 0.0115 0.0115 0.0115 0.0115 0.0115 0.0115 0.0115 0.0115 0.0115 0.0115 0.0115 0.0115 0.0115 0.0115 0.0115 0.0115 0.0115 0.0115 0.0115 0.0115 0.0115 0.0115 0.0115 0.0115 0.0115 0.0115 0.0115 0.0115 0.0115 0.0115 0.0115 0.0115 0.0115 0.0115 0.0115 0.0115 0.0115 0.0115 0.0115 0.0115 0.0115 0.0115 0.0115 0.0115 0.0115 0.0115 0.0115 0.0115 0.0115 0.0115 0.0115 0.0115 0.0115 0.0115 0.0115 0.0115 0.0115 0.0115 0.0115 0.0115 0.0115 0.0115 0.0115 0.0115 0.0115 0.0115 0.0115 0.0115 0.0115 0.0115 0.0115 0.0115 0.0115 0.0115 0.0115 0.0115 0.0115 0.0115 0.0115 0.0115 0.0115 0.0115 0.0115 0.0115 0.0115 0.0115 0.0115 0.0115 0.0115 0.0115 0.0115 0.0115 0.0115 0.0115 0.0115 0.0115 0.0115 0.0115 0.0115 0.0115 0.0115 0.0115 0.0115 0.0115 0.0115 0.0115 0.0115 0.0115 0.0115 0.0115 0.0115 0.0115 0.0115 0.0115 0.0115 0.0115 0.0115 0.0115 0.0115 0.0115 0.0115 0.0115 0.0115 0.0115 0.0115 0.0115 0.0115 0.0115 0.0115 0.0115 0.0115 0.0115 0.0115 0.0115 0.0115 0.0115 0.0115 0.0115 0.0115 0.0115 0.0115 0.0115 0.0115 0.0115 0.0115 0.0115 0.0115 0.0115 0.0115 0.0115 0.0115 0.0115 0.0115 0.0115 0.0115 0.0115 0.0115 0.0115 0.0115 0.0115 0.0115 0.0115 0.0115 0.0115 0.0115 0.0115 0.0115 0.0115 0.0115 0.0115 0.0115 0.0115 0.0115 0.0115 0.0115 0.0115 0.0115 0.0115 0.0115 0.0115 0.0115 0.0115 0.0115 0.0115 0.0115 0.0115 0.0115 0.0115 0.0115 0.0115 0.0115 0.0115 0.0115 0.0115 0.0115 0.0115 0.0115 0.0115 0.0115 0.0115 0.0115 0.0115 0.0115 0.0115 0.0115 0.0115 0.0115 0.0115 0.0115 0.0115 0.0115 0.0115 0.0115 0.0115 0.0115 0.0115 0.0115 0.0115 0.0115 0.0115 0.0115 0.0115 0.0115 0.0115 0.0115 0.0115 0.0115 0.0115 0.0115 0.0115 0.0115 0.0115 0.0115 0.0115 0.0115 0.0115 0.0115 0.0115 0.0115 0.0115 0.0115 0.0115 0.0115 0.0115 0.0115 0.0115 0.0115 0.0115 0.0115 0.0115 0.0115 0.0115 0.0115 0.0115 0.0115 0.0115 0.0115 0.0115 0.0115 0.0115 0.0115 0.0115 0.0115 0.0115 0.0115 0.0115 0.0115 0.0115 0.0115 0.0115 0.0115 0.0115 0.0115 0.0115 0.0115 0.0115 0.0115 0.0115 0.0115 0.0115 0.0115 0.0115 0.0115 0.0115 0.0115 0.0115 0.0115 0.0115 0.0115 0.0115 0.0115 0.0115 0.0115 0.0115 0.0115 0.0115 0.0115 0.0115 0.0115 0.0115 0.0115 0.0115 0.0115 0.0115 0.0115 0.0115 0.0115 0.0115 0.0115 0.0115 0.0115 0.0115 0.0115 0.0115 0.0115 0.0115 0.0115 0.0115 0.0115 0.0115 0.0115 0.0115 0.0115 0.0115 0.0115 0.0115 0.0115 0.0115 0.0115 0.0115 0.0115 0.0115 0.0115 0.0115 0.0115 0.0115 0.0115 0.0115 0.0115 0.0115 0.0115 0.0115 0.0115 0.0115 0.0115 0.0115 0.0115 0.0115 0.0115 0.0115 0.0115 0.0115 0.0115 0.0115 0.0115 0.0115 0.0115 0.0115 0.0115 0.0115 0.0115 0.0115 0.0115 0.0115 0.0115 0.0115 0.0115 0.0115 0.0115 0.0115 0.0115 0.0115 0.0115 0.0115 0.0115 0.0115 0.0115 0.0115 0.0115 0.0115 0.0115 0.0115 0.0115 0.0115 0.0115 0.0115 0.0115 0.0115 0.0115 0.0115 0.0115 0.0115 0.0115 0.0115 0.0115 0.0115 0.0115 0.0115 0.0115 0.0115 0.0115 0.0115 0.0115 0.0115 0.0115 0.0115 0.0115 0.0115 0.0115 0.0115 0.0115 0.0115 0.0115 0.0115 0.0115 0.0115 0.0115 0.0115 0.0115 0.0115 0.0115 0.0115 0.0115 0.0115 0.0115 0.0115 0.0115 0.0115 0.0115 0.0115 0.0115 0.0115 0.0115 0.0115 0.0115 0.0115 0.0115 0.0115 0.0115 0.0115 0.0115 0.0115 0.0115 0.0115 0.0115 0.0115 0.0115 0.0115 0.0115 0.0115 0.0115 0.0115 0.0115 0.0115 0.0115 0.0115 0.0115 0.0115 0.0115 0.0115 0.0115 0.0115 0.0115 0.0115 0.0115 0.0115 0.0115 0.0115 0.0115 0.0115 0.0115 0.0115 0.0115 0.0115 0.0115 0.0115 0.0115 0.0115 0.0115 0.0115 0.0115 0.0115 0.0115 0.0115 0.0115 0.0115 0.0115 0.0115 0.0115 0.0115 0.0115 0.0115 0.0115 0.0115 0.0115 0.0115 0.0115 0.0115 0.0115 0.0115 0.0115 0.0115 0.0115 0.0115 0.0115 0.0115 0.0115 0.0115 0.0115 0.0115 0.0115 0.0115 0.0115 0.0115 0.0115 0.0115 0.0115 0.0115 0.0115 0.0115 0.0115 0.0115 0.0115 0.0115 0.0115 0.0115 0.0115 0.0115 0.0115 0.0115 0.0115 0.0115 0.0115 0.0115 0.0115 0.0115 0.0115 0.0115 0.0115 0.0115 0.0115 0.0115 0.0115 0.0115 0.0115 0.0115 0.0115 0.0115 0.0115 0.0115 0.0115 0.0115 0.0115 0.0115 0.0115 0.0115 0.0115 0.0115 0.0115 0.0115 0.0115 0.0115 0.0115 0.0115 0.0115 0.0115 0.0115 0.0115 0.0115 0.0115 0.0115 0.0115 0.0115 0.0115 0.0115 0.0115 0.0115 0.0115 0.0115 0.0115 0.0115 0.0115 0.0115 0.0115 0.0115 0.0115 0.0115 0.0115 0.0115 0.0115 0.0115 0.0115 0.0115 0.0115 0.0115 0.0115 0.0115 0.0115 0.0115 0.0115 0.0115 0.0115 0.0115 0.0115 0.0115 0.0115 0.0115 0.0115 0.0115 0.0115 0.0115 0.0115 0.0115 0.0115 0.0115 0.0115 0.0115 0.0115 0.0115 0.0115 0.0115 0.0115 0.0115 0.0115 0.0115 0.0115 0.0115 0.0115 0.0115 0.0115 0.0115 0.0115 0.0115 0.0115 0.0115 0.0115 0.0115 0.0115 0.0115 0.0115 0.0115 0.0115 0.0115 0.0115 0.0115 0.0115 0.0115 0.0115 0.0115 0.0115 0.0115 0.0115 0.0115 0.0115 0.0115 0.0115 0.0115 0.0115 0.0115 0.0115 0.0115 0.0115 0.0115 0.0115 0.0115 0.0115 0.0115 0.0115 0.0115 0.0115 0.0115 0.0115 0.0115 0.0115 0.0115 0.0115 0.0115 0.0115 0.0115 0.0115 0.0115 0.0115 0.0115 0.0115 0.0115 0.0115 0.0115 0.0115 0.0115 0.0115 0.0115 0.0115 0.0115 0.0115 0.0115 0.0115 0.0115 0.0115 0.0115 0.0115 0.0115 0.0115 0.0115 0.0115 0.0115 0.0115 0.0115 0.0115 0.0115 0.0115 0.0115 0.0115 0.0115 0.0115 0.0115 0.0115 0.0115 0.0115 0.0115 0.0115 0.0115 0.0115 0.0115 0.0115 0.0115 0.0115 0.0115 0.0115 0.0115 0.0115 0.0115 0.0115 0.0115 0.0115 0.0115 0.0115 0.0115 0.0115 0.0115 0.0115 0.0115 0.0115 0.0115 0.0115 0.0115 0.0115 0.0115 0.0115 0.0115 0.0115 0.0115 0.0115 0.0115 0.0115 0.0115 0.0115 0.0115 0.0115 0.0115 0.0115 0.0115 0.0115 0.0115 0.0115 0.0115 0.0115 0.0115 0.0115 0.0115 0.0115 0.0115 0.0325 0.0325 0.0325 0.0325 0.0325 0.0325 0.0325 0.0325 0.0325 0.0325 0.0325 0.0325 0.0325 0.0325 0.0325 0.0325 0.0325 0.0325 0.0325 0.0325 0.0325 0.0325 0.0325 0.0325 0.0325 0.0325 0.0325 0.0325 0.0325 0.0325 0.0325 0.0325 0.0325 0.0325 0.0325 0.0325 0.0325 0.0325 0.0325 0.0325 0.0325 0.0325 0.0325 0.0325 0.0325 0.0325 0.0325 0.0325 0.0325 0.0325 0.0325 0.0325 0.0325 0.0325 0.0325 0.0325 0.0325 0.0325 0.0325 0.0325 0.0325 0.0325 0.0325 0.0325 0.0325 0.0325 0.0325 0.0325 0.0325 0.0325 0.0325 0.0325 0.0325 0.0325 0.0325 0.0325 0.0325 0.0325 0.0325 0.0325 0.0325 0.0325 0.0325 0.0325 0.0325 0.0325 0.0325 0.0325 0.0325 0.0325 0.0325 0.0325 0.0325 0.0325 0.0325 0.0325 0.0325 0.0325 0.0325 0.0325 0.0325 0.0325 0.0325 0.0325 0.0325 0.0325 0.0325 0.0325 0.0325 0.0325 0.0325 0.0325 0.0325 0.0325 0.0325 0.0325 0.0325 0.0325 0.0325 0.0325 0.0325 0.0325 0.0325 0.0325 0.0325 0.0325 0.0325 0.0325 0.0325 0.0325 0.0325 0.0325 0.0325 0.0325 0.0325 0.0325 0.0325 0.0325 0.0325 0.0325 0.0325 0.0325 0.0325 0.0325 0.0325 0.0325 0.0325 0.0325 0.0325 0.0325 0.0325 0.0325 0.0325 0.0325 0.0325 0.0325 0.0325 0.0325 0.0325 0.0325 0.0325 0.0325 0.0325 0.0325 0.0325 0.0325 0.0325 0.0325 0.0325 0.0325 0.0325 0.0325 0.0325 0.0325 0.0325 0.0325 0.0325 0.0325 0.0325 0.0325 0.0325 0.0325 0.0325 0.0325 0.0325 0.0325 0.0325 0.0325 0.0325 0.0325 0.0325 0.0325 0.0325 0.0325 0.0325 0.0325 0.0325 0.0325 0.0325 0.0325 0.0325 0.0325 0.0325 0.0325 0.0325 0.0325 0.0325 0.0325 0.0325 0.0325 0.0325 0.0325 0.0325 0.0325 0.0325 0.0325 0.0325 0.0325 0.0325 0.0325 0.0325 0.0325 0.0325 0.0325 0.0325 0.0325 0.0325 0.0325 0.0325 0.0325 0.0325 0.0325 0.0325 0.0325 0.0325 0.0325 0.0325 0.0325 0.0325 0.0325 0.0325 0.0325 0.0325 0.0325 0.0325 0.0325 0.0325 0.0325 0.0325 0.0325 0.0325 0.0325 0.0325 0.0325 0.0325 0.0325 0.0325 0.0325 0.0325 0.0325 0.0325 0.0325 0.0325 0.0325 0.0325 0.0325 0.0325 0.0325 0.0325 0.0325 0.0325 0.0325 0.0325 0.0325 0.0325 0.0325 0.0325 0.0325 0.0325 0.0325 0.0325 0.0325 0.0325 0.0325 0.0325 0.0325 0.0325 0.0325 0.0325 0.0325 0.0325 0.0325 0.0325 0.0325 0.0325 0.0325 0.0325 0.0325 0.0325 0.0325 0.0325 0.0325 0.0325 0.0325 0.0325 0.0325 0.0325 0.0325 0.0325 0.0325 0.0325 0.0325 0.0325 0.0325 0.0325 0.0325 0.0325 0.0325 0.0325 0.0325 0.0325 0.0325 0.0325 0.0325 0.0325 0.0325 0.0325 0.0325 0.0325 0.0325 0.0325 0.0325 0.0325 0.0325 0.0325 0.0325 0.0325 0.0325 0.0325 0.0325 0.0325 0.0325 0.0325 0.0325 0.0325 0.0325 0.0325 0.0325 0.0325 0.0325 0.0325 0.0325 0.0325 0.0325 0.0325 0.0325 0.0325 0.0325 0.0325 0.0325 0.0325 0.0325 0.0325 0.0325 0.0325 0.0325 0.0325 0.0325 0.0325 0.0325 0.0325 0.0325 0.0325 0.0325 0.0325 0.0325 0.0115 0.0115 0.0115 0.0115 0.0115 0.0115 0.0115 0.0115 0.0115 0.0115 0.0115 0.0115 0.0115 0.0115 0.0115 0.0115 0.0115 0.0115 0.0115 0.0115 0.0115 0.0115 0.0115 0.0115 0.0115 0.0115 0.0115 0.0115 0.0115 0.0115 0.0115 0.0115 0.0115 0.0115 0.0115 0.0115 0.0115 0.0115 0.0115 0.0115 0.0115 0.0115 0.0115 0.0115 0.0115 0.0115 0.0115 0.0115 0.0115 0.0115 0.0115 0.0115 0.0115 0.0115 0.0115 0.0115 0.0115 0.0115 0.0115 0.0115 0.0115 0.0115 0.0115 0.0115 0.0115 0.0115 0.0115 0.0115 0.0115 0.0115 0.0115 0.0115 0.0115 0.0115 0.0115 0.0115 0.0115 0.0115 0.0115 0.0115 0.0115 0.0115 0.0115 0.0115 0.0115 0.0115 0.0115 0.0115 0.0115 0.0115 0.0115 0.0115 0.0115 0.0115 0.0115 0.0115 0.0115 0.0115 0.0115 0.0115 0.0115 0.0115 0.0115 0.0115 0.0115 0.0115 0.0115 0.0115 0.0115 0.0115 0.0115 0.0115 0.0115 0.0115 0.0115 0.0115 0.0115 0.0115 0.0115 0.0115 0.0115 0.0115 0.0115 0.0115 0.0115 0.0115 0.0115 0.0115 0.0115 0.0115 0.0115 0.0115 0.0115 0.0115 0.0115 0.0115 0.0115 0.0115 0.0115 0.0115 0.0115 0.0115 0.0115 0.0115 0.0115 0.0115 0.0115 0.0115 0.0115 0.0115 0.0115 0.0115 0.0115 0.0115 0.0115 0.0115 0.0115 0.0115 0.0115 0.0115 0.0115 0.0115 0.0115 0.0115 0.0115 0.0115 0.0115 0.0115 0.0115 0.0115 0.0115 0.0115 0.0115 0.0115 0.0115 0.0115 0.0115 0.0115 0.0115 0.0115 0.0115 0.0115 0.0115 0.0115 0.0115 0.0115 0.0115 0.0115 0.0115 0.0115 0.0115 0.0115 0.0115 0.0115 0.0115 0.0115 0.0115 0.0115 0.0115 0.0115 0.0115 0.0115 0.0115 0.0115 0.0115 0.0115 0.0115 0.0115 0.0115 0.0115 0.0115 0.0115 0.0115 0.0115 0.0115 0.0115 0.0115 0.0115 0.0115 0.0115 0.0115 0.0115 0.0115 0.0115 0.0115 0.0115 0.0115 0.0115 0.0115 0.0115 0.0115 0.0115 0.0115 0.0115 0.0115 0.0115 0.0115 0.0115 0.0115 0.0115 0.0115 0.0115 0.0115 0.0115 0.0115 0.0115 0.0115 0.0115 0.0115 0.0115 0.0115 0.0115 0.0115 0.0115 0.0115 0.0115 0.0115 0.0115 0.0115 0.0115 0.0115 0.0115 0.0115 0.0115 0.0115 0.0115 0.0115 0.0115 0.0115 0.0115 0.0115 0.0115 0.0115 0.0115 0.0115 0.0115 0.0115 0.0115 0.0115 0.0115 0.0115 0.0115 0.0115 0.0115 0.0115 0.0115 0.0115 0.0115 0.0115 0.0115 0.0115 0.0115 0.0115 0.0115 0.0115 0.0115 0.0115 0.0115 0.0115 0.0115 0.0115 0.0115 0.0115 0.0115 0.0115 0.0115 0.0115 0.0115 0.0115 0.0115 0.0115 0.0115 0.0115 0.0115 0.0115 0.0115 0.0115 0.0115 0.0115 0.0115 0.0115 0.0115 0.0115 0.0115 0.0115 0.0115 0.0115 0.0115 0.0115 0.0115 0.0115 0.0115 0.0115 0.0115 0.0115 0.0115 0.0115 0.0115 0.0115 0.0115 0.0115 0.0115 0.0115 0.0115 0.0115 0.0115 0.0115 0.0115 0.0115 0.0115 0.0115 0.0115 0.0115 0.0115 0.0115 0.0115 0.0115 0.0115 0.0115 0.0115 0.0115 0.0115 0.0115 0.0115 0.0115 0.0115 0.0115 0.0115 0.0115 0.0115 0.0115 0.0115 0.0115 0.0115 0.0115 0.0115 0.0115 0.0115 0.0115 0.0115 0.0115 0.0115 0.0115 0.0115 0.0115 0.0115 0.0115 0.0115 0.0115 0.0115 0.0115 0.0115 0.0115 0.0115 0.0115 0.0115 0.0115 0.0115 0.0115 0.0115 0.0115 0.0115 0.0115 0.0115 0.0115 0.0115 0.0115 0.0115 0.0115 0.0115 0.0115 0.0115 0.0115 0.0115 0.0115 0.0115 0.0115 0.0115 0.0115 0.0115 0.0115 0.0115 0.0115 0.0115 0.0115 0.0115 0.0115 0.0115 0.0115 0.0115 0.0115 0.0115 0.0115 0.0115 0.0115 0.0115 0.0115 0.0115 0.0115 0.0115 0.0115 0.0115 0.0115 0.0115 0.0115 0.0115 0.0115 0.0115 0.0115 0.0115 0.0115 0.0115 0.0115 0.0115 0.0115 0.0115 0.0115 0.0115 0.0115 0.0115 0.0115 0.0115 0.0115 0.0115 0.0115 0.0115 0.0115 0.0115 0.0115 0.0115 0.0115 0.0115 0.0115 0.0115 0.0115 0.0115 0.0115 0.0115 0.0115 0.0115 0.0115 0.0115 0.0115 0.0115 0.0115 0.0115 0.0115 0.0115 0.0115 0.0115 0.0115 0.0115 0.0115 0.0115 0.0115 0.0115 0.0115 0.0115 0.0115 0.0115 0.0115 0.0115 0.0115 0.0115 0.0115 0.0115 0.0115 0.0115 0.0115 0.0115 0.0115 0.0115 0.0115 0.0115 0.0115 0.0115 0.0115 0.0115 0.0115 0.0115 0.0115 0.0115 0.0115 0.0115 0.0115 0.0115 0.0115 0.0115 0.0115 0.0115 0.0115 0.0115 0.0115 0.0115 0.0115 0.0115 0.0115 0.0115 0.0115 0.0115 0.0115 0.0115 0.0115 0.0115 0.0115 0.0115 0.0115 0.0115 0.0115 0.0115 0.0115 0.0115 0.0115 0.0115 0.0115 0.0115 0.0115 0.0115 0.0115 0.0115 0.0115 0.0115 0.0115 0.0115 0.0115 0.0115 0.0115 0.0115 0.0115 0.0115 0.0115 0.0115 0.0115 0.0115 0.0325 0.0325 0.0325 0.0325 0.0325 0.0325 0.0325 0.0325 0.0325 0.0325 0.0325 0.0325 0.0325 0.0325 0.0325 0.0325 0.0325 0.0325 0.0325 0.0325 0.0325 0.0325 0.0325 0.0325 0.0325 0.0325 0.0325 0.0325 0.0325 0.0325 0.0325 0.0325 0.0325 0.0325 0.0325 0.0325 0.0325 0.0325 0.0325 0.0325 0.0325 0.0325 0.0325 0.0325 0.0325 0.0325 0.0325 0.0325 0.0325 0.0325 0.0325 0.0325 0.0325 0.0325 0.0325 0.0325 0.0325 0.0325 0.0325 0.0325 0.0325 0.0325 0.0325 0.0325 0.0325 0.0325 0.0325 0.0325 0.0325 0.0325 0.0325 0.0325 0.0325 0.0325 0.0325 0.0325 0.0325 0.0325 0.0325 0.0325 0.0325 0.0325 0.0325 0.0325 0.0325 0.0325 0.0325 0.0325 0.0325 0.0325 0.0325 0.0325 0.0325 0.0325 0.0325 0.0325 0.0325 0.0325 0.0325 0.0325 0.0325 0.0325 0.0325 0.0325 0.0325 0.0325 0.0325 0.0325 0.0325 0.0325 0.0325 0.0325 0.0325 0.0325 0.0325 0.0325 0.0325 0.0325 0.0325 0.0325 0.0325 0.0325 0.0325 0.0325 0.0325 0.0325 0.0325 0.0325 0.0325 0.0325 0.0325 0.0325 0.0325 0.0325 0.0325 0.0325 0.0325 0.0325 0.0325 0.0325 0.0325 0.0325 0.0325 0.0325 0.0325 0.0325 0.0325 0.0325 0.0325 0.0325 0.0325 0.0325 0.0325 0.0325 0.0325 0.0325 0.0325 0.0325 0.0325 0.0325 0.0325 0.0325 0.0325 0.0325 0.0325 0.0325 0.0325 0.0325 0.0325 0.0325 0.0325 0.0325 0.0325 0.0325 0.0325 0.0325 0.0325 0.0325 0.0325 0.0325 0.0325 0.0325 0.0325 0.0325 0.0325 0.0325 0.0325 0.0325 0.0325 0.0325 0.0325 0.0325 0.0325 0.0325 0.0325 0.0325 0.0325 0.0325 0.0325 0.0325 0.0325 0.0325 0.0325 0.0325 0.0325 0.0325 0.0325 0.0325 0.0325 0.0325 0.0325 0.0325 0.0325 0.0325 0.0325 0.0325 0.0115 0.0115 0.0115 0.0115 0.0115 0.0115 0.0115 0.0115 0.0115 0.0115 0.0115 0.0115 0.0115 0.0115 0.0115 0.0115 0.0115 0.0115 0.0115 0.0115 0.0115 0.0115 0.0115 0.0115 0.0115 0.0115 0.0115 0.0115 0.0115 0.0115 0.0115 0.0115 0.0115 0.0115 0.0115 0.0115 0.0115 0.0115 0.0115 0.0115 0.0115 0.0115 0.0115 0.0115 0.0115 0.0115 0.0115 0.0115 0.0115 0.0115 0.0115 0.0115 0.0115 0.0115 0.0115 0.0115 0.0115 0.0115 0.0115 0.0115 0.0115 0.0115 0.0115 0.0115 0.0115 0.0115 0.0115 0.0115 0.0115 0.0115 0.0115 0.0115 0.0115 0.0115 0.0115 0.0115 0.0115 0.0115 0.0115 0.0115 0.0115 0.0115 0.0115 0.0115 0.0115 0.0115 0.0115 0.0115 0.0115 0.0115 0.0115 0.0115 0.0115 0.0115 0.0115 0.0115 0.0115 0.0115 0.0115 0.0115 0.0115 0.0115 0.0115 0.0115 0.0115 0.0115 0.0115 0.0115 0.0115 0.0115 0.0115 0.0115 0.0115 0.0115 0.0115 0.0115 0.0115 0.0115 0.0115 0.0115 0.0115 0.0115 0.0115 0.0115 0.0115 0.0115 0.0115 0.0115 0.0115 0.0115 0.0115 0.0115 0.0115 0.0115 0.0115 0.0115 0.0115 0.0115 0.0115 0.0115 0.0115 0.0115 0.0115 0.0115 0.0115 0.0115 0.0115 0.0115 0.0115 0.0115 0.0115 0.0115 0.0115 0.0115 0.0115 0.0115 0.0115 0.0115 0.0115 0.0115 0.0115 