<?xml version="1.0"?><VTKFile type="PolyData" version="0.1" byte_order="LittleEndian">
<PolyData>
<Piece NumberOfLines="650" NumberOfPoints="651">
<CellData Scalars=" CellData">
<DataArray type="Float32" Name="radius" NumberOfComponents="1" format="ascii" >
0.1 0.0325 0.0325 0.0325 0.0325 0.0325 0.0325 0.0325 0.0325 0.0325 0.0325 0.0325 0.0325 0.0325 0.0325 0.0325 0.0325 0.0325 0.0325 0.0325 0.0325 0.0325 0.0325 0.0325 0.0325 0.0325 0.0325 0.0325 0.0325 0.0325 0.0325 0.0325 0.0325 0.0325 0.0325 0.0325 0.0325 0.0325 0.0325 0.0325 0.0325 0.0325 0.0325 0.0325 0.0325 0.0325 0.0325 0.0325 0.0325 0.0325 0.0325 0.0325 0.0325 0.0325 0.0325 0.0325 0.0325 0.0325 0.0325 0.0325 0.0325 0.0325 0.0325 0.0325 0.0325 0.0325 0.0325 0.0325 0.0325 0.0325 0.0325 0.0325 0.0325 0.0325 0.0325 0.0325 0.0325 0.0325 0.0325 0.0325 0.0325 0.0325 0.0325 0.0325 0.0325 0.0325 0.0325 0.0325 0.0325 0.0325 0.0325 0.0325 0.0325 0.0325 0.0325 0.0325 0.0325 0.0325 0.0325 0.0325 0.0325 0.0325 0.0325 0.0325 0.0325 0.0325 0.0325 0.0325 0.0325 0.0325 0.0325 0.0325 0.0325 0.0325 0.0325 0.0325 0.0325 0.0325 0.0325 0.0325 0.0325 0.0325 0.0325 0.0325 0.0325 0.0325 0.0325 0.0325 0.0325 0.0325 0.0325 0.0325 0.0325 0.0325 0.0325 0.0325 0.0325 0.0325 0.0325 0.0325 0.0325 0.0325 0.0325 0.0325 0.0325 0.0325 0.0325 0.0325 0.0325 0.0325 0.0325 0.0325 0.0325 0.0325 0.0325 0.0325 0.0325 0.0325 0.0325 0.0325 0.0325 0.0325 0.0325 0.0325 0.0325 0.0325 0.0325 0.0325 0.0325 0.0325 0.0325 0.0325 0.0325 0.0325 0.0325 0.0325 0.0325 0.0325 0.0325 0.0325 0.0325 0.0325 0.0325 0.0325 0.0325 0.0325 0.0325 0.0325 0.0325 0.0325 0.0325 0.0325 0.0115 0.0115 0.0115 0.0115 0.0115 0.0115 0.0115 0.0115 0.0115 0.0115 0.0115 0.0115 0.0115 0.0115 0.0115 0.0115 0.0115 0.0115 0.0115 0.0115 0.0115 0.0115 0.0115 0.0115 0.0115 0.0115 0.0115 0.0115 0.0115 0.0115 0.0115 0.0115 0.0115 0.0115 0.0115 0.0115 0.0115 0.0115 0.0115 0.0115 0.0115 0.0115 0.0115 0.0115 0.0115 0.0115 0.0115 0.0115 0.0115 0.0115 0.0115 0.0115 0.0115 0.0115 0.0115 0.0115 0.0115 0.0115 0.0115 0.0115 0.0115 0.0115 0.0115 0.0115 0.0115 0.0115 0.0115 0.0115 0.0115 0.0115 0.0115 0.0115 0.0115 0.0115 0.0115 0.0115 0.0115 0.0115 0.0115 0.0115 0.0115 0.0115 0.0115 0.0115 0.0115 0.0115 0.0115 0.0115 0.0115 0.0115 0.0115 0.0115 0.0115 0.0115 0.0115 0.0115 0.0115 0.0115 0.0115 0.0115 0.0115 0.0115 0.0115 0.0115 0.0115 0.0115 0.0115 0.0115 0.0115 0.0115 0.0115 0.0115 0.0115 0.0115 0.0115 0.0115 0.0115 0.0115 0.0115 0.0115 0.0115 0.0115 0.0115 0.0115 0.0115 0.0115 0.0115 0.0115 0.0115 0.0115 0.0115 0.0115 0.0115 0.0115 0.0115 0.0115 0.0115 0.0115 0.0115 0.0115 0.0115 0.0115 0.0115 0.0115 0.0115 0.0115 0.0115 0.0115 0.0115 0.0115 0.0115 0.0115 0.0115 0.0115 0.0325 0.0325 0.0325 0.0325 0.0325 0.0325 0.0325 0.0325 0.0325 0.0325 0.0325 0.0325 0.0325 0.0325 0.0325 0.0325 0.0325 0.0325 0.0325 0.0325 0.0325 0.0325 0.0325 0.0325 0.0325 0.0325 0.0325 0.0325 0.0325 0.0325 0.0325 0.0325 0.0325 0.0325 0.0325 0.0325 0.0325 0.0325 0.0325 0.0325 0.0325 0.0325 0.0325 0.0325 0.0325 0.0325 0.0325 0.0325 0.0325 0.0325 0.0325 0.0325 0.0325 0.0325 0.0325 0.0325 0.0325 0.0325 0.0325 0.0325 0.0325 0.0325 0.0325 0.0325 0.0325 0.0325 0.0325 0.0325 0.0325 0.0325 0.0325 0.0325 0.0325 0.0325 0.0325 0.0325 0.0325 0.0325 0.0325 0.0325 0.0325 0.0325 0.0325 0.0325 0.0325 0.0325 0.0325 0.0325 0.0325 0.0325 0.0325 0.0325 0.0325 0.0325 0.0325 0.0325 0.0325 0.0325 0.0325 0.0325 0.0325 0.0325 0.0325 0.0325 0.0325 0.0325 0.0325 0.0325 0.0325 0.0325 0.0325 0.0325 0.0325 0.0325 0.0325 0.0325 0.0325 0.0325 0.0325 0.0325 0.0325 0.0325 0.0325 0.0325 0.0325 0.0325 0.0325 0.0325 0.0325 0.0325 0.0325 0.0325 0.0325 0.0325 0.0325 0.0325 0.0325 0.0325 0.0325 0.0325 0.0325 0.0325 0.0325 0.0325 0.0325 0.0325 0.0325 0.0325 0.0325 0.0325 0.0325 0.0325 0.0325 0.0325 0.0325 0.0325 0.0325 0.0325 0.0325 0.0325 0.0325 0.0325 0.0325 0.0325 0.0325 0.0325 0.0325 0.0325 0.0325 0.0325 0.0325 0.0325 0.0325 0.0325 0.0325 0.0325 0.0325 0.0325 0.0115 0.0115 0.0115 0.0115 0.0115 0.0115 0.0115 0.0115 0.0115 0.0115 0.0115 0.0115 0.0115 0.0115 0.0115 0.0115 0.0115 0.0115 0.0115 0.0115 0.0115 0.0115 0.0115 0.0115 0.0115 0.0115 0.0115 0.0115 0.0115 0.0115 0.0115 0.0115 0.0115 0.0115 0.0115 0.0115 0.0115 0.0115 0.0115 0.0115 0.0115 0.0115 0.0115 0.0115 0.0115 0.0115 0.0115 0.0115 0.0115 0.0115 0.0115 0.0115 0.0115 0.0115 0.0115 0.0115 0.0115 0.0115 0.0115 0.0115 0.0115 0.0115 0.0115 0.0115 0.0115 0.0115 0.0115 0.0115 0.0115 0.0115 0.0115 0.0115 0.0115 0.0115 0.0115 0.0115 0.0115 0.0115 0.0115 0.0115 0.0115 0.0115 0.0115 0.0115 0.0115 0.0115 0.0115 0.0115 0.0115 0.0115 0.0115 0.0115 0.0115 0.0115 0.0115 0.0115 0.0115 0.0115 0.0115 0.0115 0.0115 0.0115 0.0115 0.0115 0.0115 0.0115 0.0115 0.0115 0.0115 0.0115 0.0115 0.0115 0.0115 0.0115 0.0115 0.0115 0.0115 0.0115 0.0115 0.0115 0.0115 0.0115 0.0115 0.0115 0.0115 0.0115 
</DataArray>
<DataArray type="Float32" Name="surface" NumberOfComponents="1" format="ascii" >
1.88496 0.0408407 0.0408407 0.0408407 0.0408407 0.0408407 0.0408407 0.0408407 0.0408407 0.0408407 0.0408407 0.0408407 0.0408407 0.0408407 0.0408407 0.0408407 0.0408407 0.0408407 0.0408407 0.0408407 0.0408407 0.0307075 0.0408407 0.0408407 0.0408407 0.0408407 0.0408407 0.0201547 0.0408407 0.0408407 0.0408407 0.0408407 0.0408407 0.0201547 0.0408407 0.0408407 0.0408407 0.0408407 0.0408407 0.0201547 0.0408407 0.0408407 0.0408407 0.0408407 0.0408407 0.0201547 0.0408407 0.0408407 0.0408407 0.0408407 0.0408407 0.0201547 0.0408407 0.0408407 0.0408407 0.0408407 0.0408407 0.0201547 0.0408407 0.0408407 0.0408407 0.0408407 0.0408407 0.0201547 0.0408407 0.0408407 0.0408407 0.0408407 0.0408407 0.0201547 0.0408407 0.0408407 0.0408407 0.0408407 0.0408407 0.0201547 0.0408407 0.0408407 0.0408407 0.0408407 0.0408407 0.0201547 0.0408407 0.0408407 0.0408407 0.0408407 0.0408407 0.0201547 0.0408407 0.0408407 0.0408407 0.0408407 0.0408407 0.0201547 0.0408407 0.0408407 0.0408407 0.0408407 0.0408407 0.0201547 0.0408407 0.0408407 0.0408407 0.0408407 0.0408407 0.0201547 0.0408407 0.0408407 0.0408407 0.0408407 0.0408407 0.0201547 0.0408407 0.0408407 0.0408407 0.0408407 0.0408407 0.0201547 0.0408407 0.0408407 0.0408407 0.0408407 0.0408407 0.0201547 0.0408407 0.0408407 0.0408407 0.0408407 0.0408407 0.0201547 0.0408407 0.0408407 0.0408407 0.0408407 0.0408407 0.0201547 0.0408407 0.0408407 0.0408407 0.0408407 0.0408407 0.0201547 0.0408407 0.0408407 0.0408407 0.0408407 0.0408407 0.0201547 0.0408407 0.0408407 0.0408407 0.0408407 0.0408407 0.0201547 0.0408407 0.0408407 0.0408407 0.0408407 0.0408407 0.0201547 0.0408407 0.0408407 0.0408407 0.0408407 0.0408407 0.0201547 0.0408407 0.0408407 0.0408407 0.0408407 0.0408407 0.0201547 0.0408407 0.0408407 0.0408407 0.0408407 0.0408407 0.0201547 0.0408407 0.0408407 0.0408407 0.0408407 0.0408407 0.0201547 0.0408407 0.0408407 0.0408407 0.0408407 0.0408407 0.0201547 0.0408407 0.01777 0.0180642 0.0180642 0.0180642 0.0180642 0.0180642 0.0180642 0.0180642 0.0180642 0.0180642 0.000905202 0.0180642 0.0180642 0.0180642 0.0180642 0.0180642 0.0180642 0.0180642 0.0180642 0.0152792 0.0180642 0.0180642 0.0180642 0.0180642 0.0180642 0.0180642 0.0180642 0.0180642 0.0114465 0.0180642 0.0180642 0.0180642 0.0180642 0.0180642 0.0180642 0.0180642 0.0180642 0.00746514 0.0180642 0.0180642 0.0180642 0.0180642 0.0180642 0.0180642 0.0180642 0.0180642 0.00332847 0.0180642 0.0180642 0.0180642 0.0180642 0.0180642 0.0180642 0.0180642 0.0170938 0.0180642 0.0180642 0.0180642 0.0180642 0.0180642 0.0180642 0.0180642 0.0126257 0.0180642 0.0180642 0.0180642 0.0180642 0.0180642 0.0180642 0.0180642 0.00798071 0.0180642 0.0180642 0.0180642 0.0180642 0.0180642 0.0180642 0.0180642 0.00315091 0.0180642 0.0180642 0.0180642 0.0180642 0.0180642 0.0180642 0.0161921 0.0180642 0.0180642 0.0180642 0.0180642 0.0180642 0.0180642 0.0109674 0.0180642 0.0180642 0.0180642 0.0180642 0.0180642 0.0180642 0.0055315 0.0180642 0.0180642 0.0180642 0.0180642 0.0180642 0.0179391 0.0180642 0.0180642 0.0180642 0.0180642 0.0180642 0.0120517 0.0180642 0.0180642 0.0180642 0.0180642 0.0180642 0.00592274 0.0180642 0.0180642 0.0180642 0.0180642 0.0176052 0.0180642 0.0180642 0.0180642 0.0180642 0.0109589 0.0180642 0.0180642 0.0180642 0.0180642 0.00403573 0.0180642 0.0180642 0.0180642 0.0148866 0.0180642 0.0180642 0.0180642 0.00736955 0.0180642 0.0180642 0.0175983 0.0180642 0.0180642 0.00942939 0.0180642 0.0180642 0.000910802 0.0180642 0.0100898 0.0180642 0.000820107 0.00921128 0.0408407 0.0408407 0.0408407 0.0408407 0.0408407 0.0408407 0.0408407 0.0408407 0.0408407 0.0408407 0.0408407 0.0408407 0.0408407 0.0408407 0.0408407 0.0408407 0.0408407 0.0408407 0.0408407 0.0408407 0.0408407 0.0408407 0.0408407 0.0408407 0.0408407 0.00745998 0.0408407 0.0408407 0.0408407 0.0408407 0.0408407 0.0201547 0.0408407 0.0408407 0.0408407 0.0408407 0.0408407 0.0201547 0.0408407 0.0408407 0.0408407 0.0408407 0.0408407 0.0201547 0.0408407 0.0408407 0.0408407 0.0408407 0.0408407 0.0201547 0.0408407 0.0408407 0.0408407 0.0408407 0.0408407 0.0201547 0.0408407 0.0408407 0.0408407 0.0408407 0.0408407 0.0201547 0.0408407 0.0408407 0.0408407 0.0408407 0.0408407 0.0201547 0.0408407 0.0408407 0.0408407 0.0408407 0.0408407 0.0201547 0.0408407 0.0408407 0.0408407 0.0408407 0.0408407 0.0201547 0.0408407 0.0408407 0.0408407 0.0408407 0.0408407 0.0201547 0.0408407 0.0408407 0.0408407 0.0408407 0.0408407 0.0201547 0.0408407 0.0408407 0.0408407 0.0408407 0.0408407 0.0201547 0.0408407 0.0408407 0.0408407 0.0408407 0.0408407 0.0201547 0.0408407 0.0408407 0.0408407 0.0408407 0.0408407 0.0201547 0.0408407 0.0408407 0.0408407 0.0408407 0.0408407 0.0201547 0.0408407 0.0408407 0.0408407 0.0408407 0.0408407 0.0201547 0.0408407 0.0408407 0.0408407 0.0408407 0.0408407 0.0201547 0.0408407 0.0408407 0.0408407 0.0408407 0.0408407 0.0201547 0.0408407 0.0408407 0.0408407 0.0408407 0.0408407 0.0201547 0.0408407 0.0408407 0.0408407 0.0408407 0.0408407 0.0201547 0.0408407 0.0408407 0.0408407 0.0408407 0.0408407 0.0201547 0.0408407 0.0408407 0.0408407 0.0408407 0.0408407 0.0201547 0.0408407 0.0408407 0.0408407 0.0408407 0.0408407 0.0201547 0.0408407 0.0408407 0.0408407 0.0408407 0.0408407 0.0201547 0.0408407 0.0408407 0.0408407 0.0408407 0.0408407 0.0201547 0.0408407 0.0358262 0.0180642 0.0180642 0.0180642 0.0180642 0.0180642 0.0180642 0.0180642 0.0180642 0.0065172 0.0180642 0.0180642 0.0180642 0.0180642 0.0180642 0.0180642 0.0180642 0.0180642 0.00239262 0.0180642 0.0180642 0.0180642 0.0180642 0.0180642 0.0180642 0.0180642 0.0161724 0.0180642 0.0180642 0.0180642 0.0180642 0.0180642 0.0180642 0.0180642 0.0117211 0.0180642 0.0180642 0.0180642 0.0180642 0.0180642 0.0180642 0.0180642 0.0070956 0.0180642 0.0180642 0.0180642 0.0180642 0.0180642 0.0180642 0.0180642 0.0022882 0.0180642 0.0180642 0.0180642 0.0180642 0.0180642 0.0180642 0.0153549 0.0180642 0.0180642 0.0180642 0.0180642 0.0180642 0.0180642 0.010159 0.0180642 0.0180642 0.0180642 0.0180642 0.0180642 0.0180642 0.00475561 0.0180642 0.0180642 0.0180642 0.0180642 0.0180642 0.0171996 0.0180642 0.0180642 0.0180642 0.0180642 0.0180642 0.0113527 0.0180642 0.0180642 0.0180642 0.0180642 0.0180642 0.00526879 0.0180642 0.0180642 0.0180642 0.0180642 0.0170012 0.0180642 0.0180642 0.0180642 0.0180642 0.0104101 0.0180642 0.0180642 0.0180642 0.0180642 0.00354762 0.0180642 0.0180642 0.0180642 0.0144653 0.0180642 0.0180642 0.0180642 0.00702161 0.0180642 0.0180642 0.0173307 0.0180642 0.0180642 0.00924967 0.0180642 0.0180642 0.000827052 0.0180642 0.0101107 0.0180642 0.000955068 0.00947034 
</DataArray>

</CellData>
<Points>
<DataArray type="Float32" Name="Coordinates" NumberOfComponents="3" format="ascii" >
0 0 0 0 0 -3 -0.0584062 0.187708 -2.9632 -0.105232 0.381773 -2.9511 -0.150708 0.576428 -2.94467 -0.188158 0.77289 -2.94421 -0.218745 0.969627 -2.96315 -0.244868 1.16424 -3.00112 -0.301949 1.35171 -3.0411 -0.349455 1.5413 -3.08354 -0.39135 1.73498 -3.11058 -0.432029 1.92702 -3.14886 -0.46547 2.11744 -3.20007 -0.501127 2.31033 -3.23907 -0.529108 2.50608 -3.26908 -0.562961 2.70133 -3.29612 -0.598961 2.89663 -3.31985 -0.630126 3.09351 -3.33611 -0.655475 3.2895 -3.36685 -0.688104 3.48448 -3.39716 -0.707407 3.68182 -3.42331 -0.729455 3.87993 -3.43967 -0.751502 4.02804 -3.45345 -0.798989 4.22134 -3.47296 -0.812151 4.41983 -3.49363 -0.83158 4.6187 -3.5024 -0.862088 4.81635 -3.50321 -0.897107 5.00514 -3.55919 -0.914869 5.09526 -3.59532 -0.96588 5.27519 -3.66617 -1.01736 5.45525 -3.73638 -1.06699 5.63223 -3.81521 -1.1204 5.8027 -3.90515 -1.18558 5.97398 -3.98525 -1.20884 6.05745 -4.0325 -1.25557 6.23677 -4.10773 -1.31807 6.41119 -4.18305 -1.37875 6.58723 -4.25602 -1.44363 6.76016 -4.33274 -1.50884 6.93165 -4.41236 -1.53875 7.01416 -4.45753 -1.6033 7.18301 -4.5431 -1.65572 7.35992 -4.62026 -1.73258 7.52281 -4.7072 -1.83654 7.6499 -4.82141 -1.91357 7.79941 -4.92962 -1.95741 7.86345 -4.99061 -2.04028 7.99584 -5.11554 -2.11175 8.13294 -5.2424 -2.18719 8.26518 -5.37209 -2.26431 8.38532 -5.51216 -2.33789 8.5014 -5.65745 -2.37316 8.55901 -5.72942 -2.43323 8.67344 -5.88206 -2.4947 8.78753 -6.03439 -2.57405 8.88134 -6.1922 -2.65271 8.97255 -6.35187 -2.73396 9.07113 -6.50575 -2.76303 9.11535 -6.58906 -2.79606 9.19371 -6.77008 -2.83306 9.2803 -6.94653 -2.88458 9.34123 -7.12992 -2.94445 9.40196 -7.31083 -2.98135 9.48564 -7.48869 -2.99664 9.52028 -7.57984 -3.04512 9.60242 -7.75563 -3.08975 9.6797 -7.93462 -3.13564 9.75824 -8.11273 -3.16624 9.84586 -8.28989 -3.19131 9.92974 -8.46972 -3.19643 9.96574 -8.56148 -3.21432 10.0278 -8.75075 -3.23308 10.0965 -8.93765 -3.26605 10.1226 -9.13318 -3.30329 10.1647 -9.32512 -3.34755 10.2053 -9.5159 -3.3667 10.2276 -9.6101 -3.37595 10.2585 -9.80749 -3.38695 10.2873 -10.0051 -3.39819 10.3145 -10.2029 -3.45691 10.3139 -10.3941 -3.51547 10.3132 -10.5853 -3.54164 10.3046 -10.6801 -3.59008 10.3079 -10.8741 -3.62353 10.3232 -11.0707 -3.68253 10.3343 -11.2615 -3.73806 10.3471 -11.4532 -3.79025 10.36 -11.6459 -3.80852 10.3628 -11.7428 -3.81102 10.3676 -11.9427 -3.82434 10.3653 -12.1423 -3.86054 10.3569 -12.3388 -3.89093 10.3459 -12.5362 -3.91541 10.3349 -12.7344 -3.93341 10.341 -12.8312 -3.97321 10.343 -13.0272 -4.01076 10.3498 -13.2235 -4.04473 10.3528 -13.4206 -4.07562 10.3626 -13.6179 -4.10606 10.3777 -13.815 -4.1217 10.3845 -13.9123 -4.14965 10.403 -14.1094 -4.17077 10.4134 -14.308 -4.19281 10.4209 -14.5067 -4.2283 10.4462 -14.7019 -4.24957 10.4768 -14.8984 -4.2605 10.4952 -14.9947 -4.28671 10.5356 -15.1888 -4.31295 10.576 -15.383 -4.34247 10.6131 -15.5772 -4.37188 10.6429 -15.7728 -4.40226 10.6776 -15.9674 -4.4068 10.6851 -16.0657 -4.4031 10.6873 -16.2657 -4.40646 10.6716 -16.465 -4.416 10.6594 -16.6644 -4.42743 10.6394 -16.8631 -4.43559 10.6106 -17.0609 -4.43994 10.598 -17.1587 -4.44525 10.5771 -17.3575 -4.44368 10.5433 -17.5546 -4.44226 10.5023 -17.7504 -4.4289 10.4884 -17.9494 -4.425 10.4985 -18.1491 -4.41783 10.5048 -18.2474 -4.38896 10.5281 -18.4439 -4.34691 10.5553 -18.6375 -4.31937 10.5645 -18.8354 -4.28826 10.5913 -19.0311 -4.26547 10.6496 -19.2211 -4.26215 10.6797 -19.3151 -4.24723 10.7533 -19.5004 -4.25238 10.848 -19.6765 -4.24892 10.9616 -19.841 -4.24341 11.0748 -20.0059 -4.23077 11.1782 -20.1766 -4.22384 11.23 -20.2603 -4.20277 11.3251 -20.435 -4.16695 11.4161 -20.6094 -4.13752 11.5175 -20.7793 -4.11541 11.6071 -20.9567 -4.08571 11.6839 -21.139 -4.07006 11.7195 -21.2297 -4.03683 11.7795 -21.4176 -3.98997 11.8381 -21.603 -3.95221 11.8889 -21.7927 -3.91815 11.9231 -21.9868 -3.90027 11.9626 -22.182 -3.89146 11.9819 -22.2784 -3.85864 12.0093 -22.4738 -3.83227 12.0226 -22.6716 -3.80589 12.0388 -22.8692 -3.77767 12.0457 -23.0671 -3.75075 12.0548 -23.265 -3.74059 12.0582 -23.3632 -3.70558 12.0778 -23.5591 -3.66964 12.0984 -23.7548 -3.63274 12.1109 -23.9509 -3.6099 12.1062 -24.1496 -3.58365 12.0943 -24.3475 -3.59855 12.098 -24.445 -3.59545 12.114 -24.6443 -3.59251 12.1367 -24.843 -3.58808 12.1461 -25.0427 -3.58495 12.1577 -25.2424 -3.58435 12.1832 -25.4407 -3.58933 12.1998 -25.5379 -3.60171 12.2418 -25.733 -3.59623 12.2799 -25.9293 -3.59026 12.3103 -26.1269 -3.58447 12.3409 -26.3244 -3.58187 12.3665 -26.5228 -3.57548 12.3739 -26.621 -3.55175 12.3794 -26.8195 -3.51251 12.3963 -27.0149 -3.51549 12.4105 -27.2144 -3.51092 12.3983 -27.4139 -3.50213 12.3918 -27.6136 -3.50226 12.3898 -27.7123 -3.50294 12.3856 -27.9123 -3.50631 12.3791 -28.1121 -3.49661 12.3668 -28.3115 -3.48253 12.3617 -28.511 -3.47196 12.358 -28.7107 -3.48012 12.3575 -28.809 -3.49726 12.3671 -29.0081 -3.51658 12.3775 -29.2068 -3.52252 12.3957 -29.4059 -3.52882 12.4202 -29.6043 -3.5346 12.4361 -29.8036 -3.52582 12.4597 -29.899 -3.50238 12.496 -30.0943 -3.49902 12.5057 -30.1807 -0.72918 4.05417 -3.70108 -0.707638 4.08376 -3.94839 -0.689968 4.10526 -4.19683 -0.694464 4.11621 -4.44655 -0.684534 4.11007 -4.69628 -0.667835 4.10831 -4.94572 -0.658365 4.10911 -5.19553 -0.654942 4.11295 -5.44548 -0.673071 4.15347 -5.69151 -0.675481 4.15539 -5.70365 -0.667069 5.06463 -3.60787 -0.418663 5.06784 -3.63587 -0.171799 5.06941 -3.67531 0.0710717 5.1126 -3.71591 0.313838 5.15826 -3.75437 0.554215 5.20121 -3.80798 0.78528 5.26041 -3.88285 1.01587 5.32757 -3.95225 1.21575 5.36987 -4.0068 -1.14518 6.29808 -4.05577 -1.0799 6.53821 -4.0798 -0.950408 6.7501 -4.10869 -0.818589 6.96122 -4.13223 -0.670649 7.16103 -4.15844 -0.518196 7.35085 -4.21526 -0.375162 7.54692 -4.27523 -0.234796 7.74153 -4.3454 -0.144772 7.86404 -4.38992 -1.37359 7.17651 -4.36339 -1.19325 7.31974 -4.2661 -1.01838 7.47242 -4.17331 -0.853776 7.65946 -4.15285 -0.68349 7.8421 -4.1408 -0.517984 8.02795 -4.11692 -0.344264 8.20213 -4.07239 -0.163798 8.36688 -4.01958 -0.0815943 8.42529 -3.99713 -2.19661 7.85254 -5.06247 -2.40862 7.85767 -5.19485 -2.59694 7.91297 -5.34969 -2.77189 7.97258 -5.51804 -2.95068 8.05476 -5.67225 -3.13205 8.13952 -5.82198 -3.3098 8.18448 -5.99193 -3.52348 8.1664 -6.12044 -3.55917 8.15764 -6.14821 -2.53433 8.72674 -5.63783 -2.69833 8.8962 -5.55484 -2.8618 9.06513 -5.46973 -3.04351 9.22321 -5.40272 -3.2237 9.39202 -5.36356 -3.39523 9.572 -5.33737 -3.58921 9.7276 -5.31167 -3.76845 9.87951 -5.28409 -2.80433 9.17736 -6.8277 -2.86005 9.24876 -7.06072 -2.90765 9.33247 -7.29143 -2.97726 9.43031 -7.5107 -3.02479 9.53616 -7.73214 -3.10733 9.58393 -7.96324 -3.15804 9.6583 -8.19647 -3.18946 9.69668 -8.36402 -2.89416 9.47296 -7.80291 -2.81549 9.42564 -8.03544 -2.67701 9.40307 -8.24235 -2.53693 9.39551 -8.44928 -2.40816 9.36789 -8.66178 -2.26731 9.34119 -8.86659 -2.12017 9.30856 -9.06605 -2.05528 9.29403 -9.15425 -3.33556 9.84797 -8.73257 -3.47856 9.77908 -8.92572 -3.60955 9.71566 -9.12899 -3.69754 9.63042 -9.34692 -3.77474 9.57308 -9.57768 -3.82496 9.58035 -9.82247 -3.8471 9.63963 -10.0643 -3.84725 9.65515 -10.1051 -3.60583 10.2906 -9.57325 -3.85022 10.3247 -9.53317 -4.0943 10.3534 -9.48734 -4.33969 10.3814 -9.44858 -4.58365 10.382 -9.39398 -4.82173 10.413 -9.32426 -5.0321 10.4458 -9.2544 -3.45037 10.2344 -10.902 -3.34912 10.1581 -11.1175 -3.24302 10.0367 -11.3086 -3.14556 9.92202 -11.5082 -3.07276 9.8071 -11.7179 -2.99089 9.70764 -11.9322 -2.92504 9.62229 -12.039 -3.95866 10.5525 -11.8057 -4.13159 10.7133 -11.8878 -4.21964 10.9355 -11.9611 -4.30777 11.1409 -12.0732 -4.40547 11.3477 -12.174 -4.4838 11.5636 -12.2728 -4.51299 11.6271 -12.304 -3.70721 10.4175 -12.7572 -3.4797 10.4782 -12.6732 -3.28795 10.6093 -12.5808 -3.11342 10.7348 -12.4531 -2.9729 10.8945 -12.3218 -2.84361 11.0755 -12.2116 -4.02539 10.5436 -14.0794 -3.94025 10.6944 -14.2596 -3.84005 10.8227 -14.4494 -3.75348 10.9523 -14.6449 -3.69326 11.1026 -14.8353 -3.65487 11.2039 -14.9621 -4.48348 10.5588 -15.0882 -4.67032 10.5972 -15.2498 -4.85036 10.6305 -15.42 -5.03272 10.6637 -15.5878 -5.24722 10.6877 -15.7139 -5.31721 10.6947 -15.756 -4.34041 10.4913 -16.209 -4.23541 10.2949 -16.3228 -4.1261 10.1046 -16.4424 -4.01345 9.91988 -16.5677 -3.90373 9.74062 -16.6909 -4.64565 10.537 -17.287 -4.85273 10.4707 -17.4103 -5.04498 10.4134 -17.5595 -5.23642 10.3816 -17.7171 -5.34578 10.3691 -17.8215 -4.49131 10.4542 -18.4809 -4.56516 10.4034 -18.7143 -4.60902 10.2923 -18.9339 -4.65263 10.1818 -19.1539 -4.66186 10.1572 -19.2032 -4.39336 10.6246 -19.5206 -4.53825 10.6555 -19.722 -4.70731 10.6798 -19.9045 -4.85294 10.7008 -20.0487 -4.24895 11.2962 -20.5001 -4.26369 11.379 -20.7355 -4.27162 11.4522 -20.9744 -4.28108 11.4798 -21.0721 -4.15313 11.7676 -21.4606 -4.28959 11.8027 -21.6671 -4.39396 11.7997 -21.8871 -3.66417 12.0588 -22.3486 -3.4426 12.1434 -22.4277 -3.32539 12.1906 -22.4602 -3.54032 12.0096 -23.5047 -3.34674 11.9546 -23.653 -3.33755 11.9509 -23.6608 -3.79161 12.2472 -24.4994 -3.89896 12.3318 -24.528 -3.46002 12.406 -25.595 -3.45516 12.4152 -25.5994 -3.60546 12.4957 -26.5986 -0.188828 -0.045004 -2.95185 -0.375072 -0.096148 -2.89991 -0.562008 -0.156432 -2.86222 -0.755342 -0.204126 -2.84358 -0.948465 -0.253793 -2.8282 -1.14688 -0.278348 -2.82276 -1.34483 -0.306874 -2.82218 -1.54201 -0.340343 -2.82225 -1.73799 -0.379699 -2.81552 -1.92681 -0.444921 -2.82517 -2.11594 -0.509216 -2.83499 -2.29874 -0.590346 -2.83433 -2.4836 -0.666431 -2.84059 -2.67162 -0.734373 -2.84621 -2.85437 -0.814146 -2.83084 -3.03676 -0.895649 -2.82126 -3.22033 -0.974819 -2.82715 -3.40505 -1.05006 -2.84198 -3.5912 -1.12144 -2.85786 -3.75454 -1.23551 -2.87539 -3.91235 -1.35533 -2.9026 -4.03742 -1.5016 -2.95704 -4.14847 -1.65993 -3.008 -4.25415 -1.81524 -3.07664 -4.34042 -1.98026 -3.1496 -4.35585 -2.01073 -3.16258 -4.43927 -2.17714 -3.23571 -4.53155 -2.33347 -3.31966 -4.59253 -2.50319 -3.40611 -4.63688 -2.67286 -3.50226 -4.67078 -2.83593 -3.61299 -4.68452 -2.91311 -3.67295 -4.68411 -3.08631 -3.77296 -4.66277 -3.2567 -3.87549 -4.61743 -3.41604 -3.98754 -4.56914 -3.57017 -4.10549 -4.53777 -3.7283 -4.22386 -4.52038 -3.80499 -4.28351 -4.47831 -3.95444 -4.40957 -4.44307 -4.10671 -4.53437 -4.40283 -4.21965 -4.69444 -4.37097 -4.3254 -4.86118 -4.33197 -4.43036 -5.0269 -4.31452 -4.48312 -5.10847 -4.28302 -4.59102 -5.27389 -4.25147 -4.69823 -5.43976 -4.2374 -4.81063 -5.60459 -4.21589 -4.91489 -5.7739 -4.19904 -5.01857 -5.9441 -4.17881 -5.07478 -6.02267 -4.14604 -5.18643 -6.18533 -4.12871 -5.29724 -6.35092 -4.09561 -5.40015 -6.51919 -4.0907 -5.49228 -6.69664 -4.08397 -5.56905 -6.88119 -4.06961 -5.60328 -6.97265 -4.04125 -5.67223 -7.15823 -4.01656 -5.72748 -7.34886 -3.99665 -5.78352 -7.53981 -4.00794 -5.83509 -7.73272 -4.01797 -5.8894 -7.92494 -4.02662 -5.90519 -8.02198 -4.04667 -5.91153 -8.22087 -4.05161 -5.91489 -8.42078 -4.06189 -5.91817 -8.62049 -4.07516 -5.92028 -8.82004 -4.08805 -5.93108 -9.01933 -4.09141 -5.93473 -9.11791 -4.09724 -5.93385 -9.31782 -4.1071 -5.9375 -9.51754 -4.11815 -5.94103 -9.71721 -4.11835 -5.9404 -9.9172 -4.0997 -5.95412 -10.1159 -4.09151 -5.95715 -10.2142 -4.07421 -5.9748 -10.4126 -4.06634 -5.9971 -10.6112 -4.05703 -6.00754 -10.8107 -4.0427 -6.03589 -11.0082 -4.02536 -6.03057 -11.2074 -4.01656 -6.02862 -11.3057 -3.99726 -6.02802 -11.5047 -3.96934 -6.02374 -11.7027 -3.94362 -6.02007 -11.901 -3.9187 -6.01402 -12.0994 -3.90078 -6.00262 -12.2983 -3.89286 -5.99718 -12.3965 -3.87354 -5.97892 -12.5947 -3.84743 -5.97816 -12.793 -3.8054 -5.96484 -12.9881 -3.76544 -5.95167 -13.1836 -3.73563 -5.92658 -13.3798 -3.72199 -5.91884 -13.4772 -3.68147 -5.87971 -13.6691 -3.63792 -5.84349 -13.8609 -3.59189 -5.80461 -14.0516 -3.55244 -5.75889 -14.2423 -3.50863 -5.72009 -14.4336 -3.48601 -5.70011 -14.5275 -3.45013 -5.65264 -14.7185 -3.41056 -5.61595 -14.911 -3.3601 -5.57688 -15.1006 -3.30619 -5.52863 -15.287 -3.25225 -5.48036 -15.4735 -3.22674 -5.4552 -15.5655 -3.1794 -5.41038 -15.7545 -3.13387 -5.36704 -15.9444 -3.1036 -5.31772 -16.1358 -3.07091 -5.28066 -16.3296 -3.05684 -5.22762 -16.522 -3.05286 -5.19837 -16.6161 -3.02455 -5.17511 -16.8128 -3.00738 -5.15343 -17.0108 -3.00606 -5.11343 -17.2068 -3.00795 -5.06813 -17.4016 -3.01338 -5.01764 -17.595 -3.01834 -4.98452 -17.6879 -3.02543 -4.91406 -17.8749 -3.03201 -4.83868 -18.0601 -3.04312 -4.76491 -18.2456 -3.04978 -4.70132 -18.4351 -3.06405 -4.63941 -18.6248 -3.06838 -4.60163 -18.7158 -3.07631 -4.5239 -18.8999 -3.08102 -4.44918 -19.0854 -3.08561 -4.36757 -19.2679 -3.09687 -4.29354 -19.4534 -3.10941 -4.22623 -19.6413 -3.12524 -4.19485 -19.7335 -3.15481 -4.14171 -19.9241 -3.18559 -4.09136 -20.1152 -3.22177 -4.0487 -20.3072 -3.25287 -3.99629 -20.4977 -3.28533 -3.94116 -20.6872 -3.30263 -3.91334 -20.7803 -3.338 -3.85704 -20.9689 -3.37195 -3.79477 -21.1559 -3.41213 -3.73733 -21.3432 -3.44824 -3.67647 -21.5303 -3.47622 -3.61417 -21.7183 -3.48622 -3.58836 -21.813 -3.50268 -3.54091 -22.0066 -3.51872 -3.50247 -22.2022 -3.52175 -3.47705 -22.4005 -3.53492 -3.46763 -22.5999 -3.5481 -3.45832 -22.7992 -3.55455 -3.45044 -22.8974 -3.54579 -3.42666 -23.0958 -3.54438 -3.39873 -23.2938 -3.53085 -3.37434 -23.4919 -3.51959 -3.35188 -23.6903 -3.50273 -3.32899 -23.8883 -3.48818 -3.31392 -23.9847 -3.45915 -3.28475 -24.1804 -3.42685 -3.28273 -24.3778 -3.39374 -3.27812 -24.575 -3.37139 -3.27209 -24.7736 -3.3546 -3.26819 -24.9729 -3.34696 -3.26666 -25.0713 -3.33241 -3.26026 -25.2707 -3.34461 -3.24311 -25.4695 -3.3459 -3.23818 -25.6695 -3.35107 -3.24341 -25.8693 -3.35623 -3.25522 -26.0689 -3.35818 -3.26032 -26.1675 -3.36654 -3.27452 -26.3668 -3.37911 -3.28551 -26.5661 -3.37796 -3.27764 -26.7659 -3.37564 -3.26892 -26.9657 -3.37883 -3.26454 -27.1657 -3.38033 -3.26393 -27.2644 -3.38104 -3.26461 -27.4643 -3.38233 -3.28229 -27.6636 -3.34406 -3.31918 -27.8564 -3.30397 -3.35598 -28.0488 -3.26478 -3.39416 -28.2412 -3.24555 -3.41284 -28.3362 -3.20596 -3.44228 -28.53 -3.18111 -3.46528 -28.7021 -4.52188 -1.97727 -3.34646 -4.68059 -1.92868 -3.53341 -4.82791 -1.9007 -3.73345 -4.97865 -1.86748 -3.93011 -5.13541 -1.79899 -4.11242 -5.31273 -1.68513 -4.24693 -5.48274 -1.5776 -4.39536 -5.67704 -1.53263 -4.54611 -5.74717 -1.5041 -4.59513 -4.45992 -2.82353 -3.60948 -4.23576 -2.73442 -3.5438 -4.01539 -2.64702 -3.46444 -3.79325 -2.59508 -3.3622 -3.56982 -2.53402 -3.26811 -3.36423 -2.45102 -3.1526 -3.20085 -2.32916 -3.00783 -3.01706 -2.1999 -2.89823 -2.99197 -2.17974 -2.89045 -4.65499 -3.60373 -4.34573 -4.77503 -3.39963 -4.42594 -4.88415 -3.19736 -4.52433 -5.01561 -3.0326 -4.65878 -5.13393 -2.86752 -4.80454 -5.24952 -2.70949 -4.95999 -5.40103 -2.55691 -5.08752 -5.55307 -2.42399 -5.18401 -4.55681 -4.49496 -5.04802 -4.80246 -4.5269 -5.01437 -5.04469 -4.54186 -4.95433 -5.28758 -4.55325 -4.89626 -5.53241 -4.52454 -4.85461 -5.77514 -4.48497 -4.80971 -6.01213 -4.42037 -4.76321 -6.17073 -4.39466 -4.78553 -4.21717 -5.31664 -5.97234 -4.2485 -5.56326 -5.94601 -4.29226 -5.80863 -5.96553 -4.34252 -6.05343 -5.97245 -4.38743 -6.29934 -5.97525 -4.45657 -6.53928 -5.98745 -4.52736 -6.77886 -5.99696 -4.55157 -6.87366 -6.00536 -4.17333 -5.44132 -7.13237 -4.25442 -5.28513 -7.30993 -4.34892 -5.18109 -7.51668 -4.4401 -5.0903 -7.73102 -4.5349 -5.03623 -7.95594 -4.57777 -4.9725 -8.19385 -4.65679 -4.92449 -8.42612 -4.66968 -4.91882 -8.45449 -4.06285 -5.88906 -8.26881 -4.09256 -5.87802 -8.5168 -4.12305 -5.86961 -8.76479 -4.13071 -5.93671 -9.0055 -4.16313 -6.03181 -9.23442 -4.17679 -6.13766 -9.46049 -4.21228 -6.19151 -9.66297 -4.13293 -6.1789 -9.1519 -4.20413 -6.41451 -9.19573 -4.28223 -6.64527 -9.25184 -4.32743 -6.88616 -9.30114 -4.37612 -7.11548 -9.38797 -4.41218 -7.34975 -9.46745 -4.41771 -7.48056 -9.5187 -4.18123 -6.14362 -10.3545 -4.23837 -6.33075 -10.5101 -4.30112 -6.51421 -10.6679 -4.36641 -6.70524 -10.8153 -4.42474 -6.89595 -10.9661 -4.48442 -7.07128 -11.134 -4.49281 -7.12201 -11.1751 -4.21823 -5.92351 -11.4095 -4.42685 -5.85231 -11.5274 -4.61809 -5.78455 -11.6735 -4.80965 -5.69889 -11.8094 -5.00237 -5.6177 -11.9464 -5.18273 -5.51312 -12.0613 -3.70589 -6.12336 -12.5043 -3.49404 -6.23307 -12.579 -3.2902 -6.34133 -12.6751 -3.09885 -6.43047 -12.809 -2.91577 -6.54058 -12.9389 -2.80126 -6.61 -13.021 -3.78119 -6.01992 -13.6981 -3.85289 -6.11642 -13.9173 -3.92622 -6.21347 -14.1357 -4.01797 -6.32284 -14.3409 -4.12124 -6.48384 -14.5019 -4.14199 -6.52884 -14.5554 -3.40034 -5.88903 -14.6671 -3.30875 -6.07069 -14.8124 -3.21562 -6.26141 -14.9445 -3.10664 -6.46307 -15.0443 -3.00463 -6.64924 -15.1457 -3.14132 -5.2207 -15.5801 -3.12793 -4.97141 -15.5933 -3.12046 -4.72224 -15.6122 -3.0913 -4.47717 -15.6521 -3.08648 -4.3444 -15.7078 -2.90368 -5.0134 -16.6938 -2.75747 -4.85469 -16.8201 -2.63251 -4.68992 -16.9605 -2.50753 -4.52513 -17.101 -2.48462 -4.5001 -17.1365 -2.90332 -4.84706 -17.5136 -2.78761 -4.70882 -17.3404 -2.65141 -4.57035 -17.183 -2.54359 -4.45529 -17.0596 -2.94168 -4.38615 -18.712 -2.81415 -4.17114 -18.7153 -2.69748 -3.95456 -18.6708 -2.65026 -3.8715 -18.653 -3.26568 -4.36418 -19.8523 -3.40657 -4.5323 -19.9722 -3.54189 -4.69366 -20.0871 -3.17319 -3.91977 -20.9941 -3.01754 -3.89958 -21.1886 -2.93998 -3.88752 -21.2898 -3.65947 -3.51904 -21.9794 -3.8218 -3.43382 -22.1493 -3.82902 -3.42997 -22.1573 -3.36724 -3.32468 -23.0051 -3.27474 -3.25662 -23.085 -3.27628 -3.30749 -24.1172 -3.26565 -3.30565 -24.1248 -3.46304 -3.30663 -25.1172 
</DataArray>
</Points>
<Lines>
<DataArray type="Int32" Name="connectivity" NumberOfComponents="1" format="ascii" >