<?xml version="1.0"?><VTKFile type="PolyData" version="0.1" byte_order="LittleEndian">
<PolyData>
<Piece NumberOfLines="66" NumberOfPoints="1073">
<PointData Scalars=" PointData">
<DataArray type="Float32" Name="time" NumberOfComponents="1" format="ascii" >
0 0.114549 0.230963 0.349305 0.469638 0.592031 0.716556 0.843289 0.972308 1.1037 1.23755 1.37395 1.51301 1.65483 1.79951 1.94719 2.09798 2.25202 2.40945 2.57042 2.7351 2.90367 3.07631 3.25321 3.43461 3.62073 3.81183 4.00817 4.21006 4.41781 4.63178 4.85236 5.07996 5.31504 5.55811 5.80974 6.07055 6.34124 6.62258 6.91545 7 0 0.113823 0.219479 0.334027 0.448956 0.506026 0.621528 0.737418 0.853697 0.970368 1.08743 1.2049 1.32276 1.44102 1.5597 1.56436 1.68345 1.80296 1.90072 2.02098 2.14166 2.26277 2.38429 2.50625 2.62864 2.72766 2.79897 2.9224 3.04627 3.17059 3.21831 3.34325 3.46864 3.59448 3.72079 3.84755 3.84981 3.97705 4.10476 4.23294 4.34621 4.47529 4.60486 4.73491 4.86546 4.99649 5.12803 5.18416 5.31642 5.44918 5.58245 5.64632 5.78036 5.91491 6.04999 6.1856 6.25217 6.38858 6.52553 6.66302 6.80105 6.8878 7 2.68926 3.34046 4.05038 4.83069 5.35516 6.28466 7 5.52982 6.98841 7 2.9971 3.65953 4.20442 5.0372 6.01464 6.68871 7 6.80192 7 4.13574 4.80369 5.57559 6.48987 7 4.49818 5.18972 6.06152 7 4.49818 6.26962 7 5.39041 6.05278 6.38235 7 6.71452 7 5.46743 6.11947 6.83235 7 5.92061 6.57533 7 6.6039 7 0 0.113737 0.227675 0.341816 0.456159 0.570707 0.604158 0.718969 0.833985 0.949208 1.01529 1.13084 1.2466 1.36256 1.39731 1.51355 1.63 1.74666 1.86353 1.98061 2.09791 2.21542 2.23489 2.35265 2.47063 2.58882 2.67282 2.79139 2.91017 2.99475 3.11391 3.2333 3.3529 3.47273 3.59279 3.5982 3.71849 3.839 3.95974 4.08071 4.2019 4.32333 4.44498 4.52975 4.6518 4.77407 4.89658 4.98114 5.10404 5.22718 5.35056 5.47417 5.53375 5.65772 5.78192 5.90637 6.03106 6.15599 6.28116 6.40658 6.53224 6.65815 6.77282 6.89921 7 5.60054 6.24697 6.94042 7 6.04501 6.70036 7 6.4582 7 0 0.114046 0.228921 0.344636 0.461204 0.578637 0.696948 0.805541 0.925569 1.04651 1.16839 1.1789 1.3018 1.36065 1.48498 1.6103 1.73661 1.86395 1.99231 2.12173 2.25221 2.34027 2.47258 2.606 2.74056 2.75066 2.88646 3.02343 3.16161 3.30099 3.44162 3.52348 3.66611 3.81004 3.95529 4.10188 4.24985 4.39921 4.43756 4.58871 4.74132 4.89542 4.91736 5.07319 5.23058 5.38954 5.55012 5.71235 5.87625 6.04187 6.09614 6.26409 6.43384 6.60544 6.77892 6.95432 7 0 0.113774 0.227826 0.342155 0.456764 0.571654 0.686826 0.802282 0.918023 1.03405 1.15037 1.26697 1.27134 1.38825 1.50545 1.62294 1.74073 1.75582 1.87394 1.99236 2.03764 2.15647 2.27561 2.39505 2.5148 2.52603 2.52604 2.64612 2.76651 2.84088 2.96178 3.08298 3.16758 3.28932 3.41137 3.53375 3.65644 3.77946 3.9028 3.95813 4.08194 4.20608 4.33055 4.45536 4.58049 4.64026 4.76589 4.89186 5.01817 5.14481 5.15928 5.28631 5.41368 5.54141 5.54439 5.67247 5.8009 5.92968 6.05882 6.18832 6.26459 6.39466 6.52509 6.65588 6.69318 6.82445 6.95608 6.96748 7 3.94668 4.3706 5.14791 6.13356 7 4.42549 5.83989 7 4.45977 5.11239 5.82735 6.61781 7 4.75838 5.40621 6.10446 6.86166 7 5.27613 5.92775 6.63921 7 5.27613 5.94825 6.73664 6.99843 7 5.61007 6.26624 6.31075 7 6.73787 7 5.95672 6.60919 7 6.79618 7 0 0.113853 0.228143 0.342872 0.385095 0.500431 0.616214 0.732449 0.849138 0.966286 1.0839 1.11608 1.23429 1.35296 1.47211 1.55308 1.67303 1.79347 1.91439 2.03581 2.08284 2.20495 2.32755 2.45067 2.503 2.62684 2.7512 2.87607 3.00148 3.12741 3.20882 3.33564 3.46299 3.59089 3.61051 3.73904 3.86814 3.99779 4.12801 4.2588 4.35032 4.4821 4.61445 4.7474 4.88094 5.01508 5.14983 5.23568 5.37143 5.50781 5.6448 5.78243 5.9207 6.00616 6.14547 6.28544 6.42606 6.56735 6.70931 6.80812 6.80812 6.81502 6.95817 7 5.61453 6.28753 7 6.48768 7 0 0.113743 0.2277 0.341871 0.456258 0.57086 0.68568 0.800718 0.822109 0.937406 1.05292 1.16866 1.28462 1.4008 1.44699 1.56349 1.6802 1.79714 1.91431 2.0317 2.06767 2.18536 2.30328 2.41129 2.52965 2.64825 2.76707 2.88613 3.00542 3.12495 3.24471 3.28175 3.40182 3.52214 3.64269 3.76348 3.88451 4.00579 4.05682 4.17844 4.30031 4.42242 4.51153 4.63406 4.75685 4.87988 5.00317 5.03551 5.15911 5.28296 5.40707 5.53143 5.641 5.76584 5.89094 5.99598 6.12155 6.24739 6.37349 6.49985 6.52097 6.64764 6.77458 6.90178 7 6.02473 6.67494 7 6.70591 7 0 0.113762 0.114842 0.228859 0.343129 0.457653 0.572432 0.687468 0.781536 0.897041 0.91005 1.02584 1.1419 1.25822 1.3748 1.49164 1.56193 1.6792 1.79674 1.91455 2.03263 2.15098 2.26961 2.3885 2.50768 2.52243 2.64191 2.76167 2.88172 3.00204 3.12264 3.24353 3.32792 3.44929 3.57095 3.6929 3.81514 3.93766 4.00279 4.10117 4.22438 4.34789 4.47169 4.47623 4.60035 4.72476 4.84947 4.97449 5.09534 5.22096 5.34688 5.47312 5.59966 5.67803 5.80508 5.93245 6.06013 6.18813 6.31644 6.44508 6.57404 6.70333 6.80554 6.93541 7 3.13137 3.27558 3.97383 4.80383 5.82714 6.31264 7 4.31144 5.77332 7 3.25343 3.90217 4.60358 5.07143 5.87931 6.77054 7 3.96234 4.63105 5.40593 6.32716 7 5.51011 7 4.09906 4.76699 4.87202 5.66168 6.60091 7 5.62677 7 4.7929 5.44312 6.14965 6.6267 7 5.81627 6.46492 7 6.67545 7 0 0.114047 0.228923 0.255333 0.371245 0.488013 0.578057 0.696369 0.815574 0.824542 0.944721 1.06582 1.11921 1.24166 1.36506 1.48944 1.57039 1.6964 1.82342 1.95148 2.00699 2.13655 2.20148 2.33265 2.46491 2.59829 2.73281 2.86848 2.9529 3.09048 3.22927 3.36929 3.51057 3.65311 3.79696 3.90335 4.04951 4.19702 4.25633 4.4058 4.5567 4.70905 4.86289 5.01824 5.17513 5.32741 5.48742 5.64906 5.81237 5.97739 6.14415 6.29646 6.46664 6.63867 6.8126 6.98846 7 4.08475 4.74115 5.46962 6.28796 7 4.49714 5.14831 5.85817 6.22434 7 4.81371 5.46787 6.1883 6.98996 7 5.19402 5.84721 6.5642 7 5.78042 6.43796 7 6.35276 7 6.35276 7 6.60932 7 0 0.11605 0.237211 0.363954 0.49682 0.636428 0.783501 0.938882 1.10357 1.27874 1.46583 1.66657 1.88312 2.11819 2.37523 2.65878 2.97495 3.33222 3.74292 4.22585 4.812 5.55779 6.58415 7 0 0.114888 0.232353 0.352513 0.475496 0.601438 0.730483 0.862789 0.998525 1.13787 1.28103 1.42821 1.57965 1.7356 1.89634 2.06217 2.23342 2.41047 2.59371 2.78359 2.98063 3.18536 3.39843 3.62054 3.85249 4.09519 4.34969 4.6172 4.89911 5.19706 5.513 5.84923 6.20855 6.59435 7 0 0.114254 0.229762 0.34655 0.464649 0.584088 0.704897 0.827109 0.950756 1.07587 1.20249 1.33066 1.33982 1.46968 1.60115 1.73429 1.86914 2.00573 2.10002 2.23966 2.38118 2.52463 2.67006 2.81753 2.90803 3.0589 3.21195 3.36726 3.5249 3.57398 3.73476 3.89805 4.0639 4.23241 4.31106 4.4836 4.65902 4.83741 5.01888 5.20353 5.26859 5.45771 5.65029 5.84646 6.04635 6.25011 6.4579 6.66986 6.68105 6.89761 7 0 0.113716 0.227592 0.341628 0.455824 0.570181 0.661166 0.775814 0.890623 0.923487 1.03851 1.15369 1.26903 1.3271 1.44269 1.55845 1.67438 1.67532 1.79141 1.90767 1.98574 2.10228 2.21898 2.33586 2.4529 2.57011 2.68749 2.71564 2.83323 2.95099 3.06893 3.18703 3.30531 3.42376 3.54238 3.54793 3.66674 3.78572 3.90487 4.0242 4.1437 4.22476 4.34456 4.46454 4.56731 4.68762 4.8081 4.92877 4.99868 5.11963 5.24076 5.36207 5.48356 5.60524 5.7271 5.84914 5.97136 6.08224 6.20481 6.32758 6.45053 6.57366 6.69581 6.81932 6.94302 7 6.01616 6.67262 7 6.29641 6.96358 7 6.72774 7 0 0.113913 0.228384 0.343419 0.41261 0.528556 0.64508 0.762188 0.879885 0.998178 1.01454 1.13352 1.25311 1.37331 1.49413 1.61558 1.73766 1.86039 1.98376 2.08851 2.21309 2.33834 2.46427 2.53569 2.66269 2.79038 2.91877 3.04787 3.17769 3.30823 3.32996 3.46136 3.53558 3.66814 3.80146 3.93554 4.07039 4.20603 4.32514 4.46226 4.6002 4.67072 4.8099 4.9499 5.09076 5.23246 5.37503 5.51847 5.6628 5.66983 5.8151 5.96128 6.08445 6.23232 6.38114 6.53091 6.68165 6.71986 6.87183 7 0 0.113751 0.227733 0.341947 0.456392 0.571071 0.685985 0.801134 0.916519 1.03214 1.148 1.14946 1.26556 1.3819 1.45244 1.56917 1.68614 1.80336 1.92082 2.03853 2.15649 2.18822 2.30649 2.42501 2.54378 2.6628 2.78207 2.87251 2.98675 3.10671 3.22693 3.34741 3.46814 3.58914 3.61304 3.73435 3.85592 3.97775 4.09985 4.22221 4.34484 4.42342 4.54649 4.66983 4.79344 4.91732 5.04148 5.16591 5.18169 5.30643 5.43145 5.55675 5.68233 5.6928 5.81868 5.94484 6.07129 6.19803 6.32505 6.45235 6.57681 6.70469 6.83286 6.96132 7 0 0.114343 0.230123 0.347377 0.466142 0.586459 0.708367 0.831911 0.957133 1.08408 1.2128 1.34335 1.47577 1.61013 1.74647 1.88486 2.02536 2.16804 2.31296 2.4602 2.60983 2.76193 2.91658 3.07388 3.2339 3.39676 3.56255 3.73137 3.90335 4.07859 4.25724 4.43942 4.62527 4.81495 5.00862 5.20645 5.40862 5.61533 5.82678 6.0432 6.26482 6.49191 6.72474 6.9636 7 
</DataArray>

</PointData>
<CellData Scalars="CellData">
<DataArray type="Float32" Name="radius" NumberOfComponents="1" format="ascii" >
0.05 0.05 0.03 0.02 0.03 0.02 0.03 0.03 0.02 0.03 0.02 0.03 0.03 0.03 0.05 0.03 0.03 0.03 0.05 0.05 0.03 0.02 0.03 0.03 0.03 0.03 0.03 0.02 0.03 0.03 0.05 0.03 0.03 0.05 0.03 0.03 0.05 0.03 0.02 0.03 0.03 0.02 0.03 0.02 0.03 0.03 0.03 0.05 0.03 0.03 0.03 0.03 0.03 0.03 0.02 0.03 0.05 0.05 0.05 0.05 0.03 0.03 0.03 0.05 0.05 0.05 
</DataArray>
<DataArray type="Float32" Name="subType" NumberOfComponents="1" format="ascii" >
1 4 2 3 2 3 2 2 3 2 3 2 2 2 4 2 2 2 4 4 2 3 2 2 2 2 2 3 2 2 4 2 2 4 2 2 4 2 3 2 2 3 2 3 2 2 2 4 2 2 2 2 2 2 3 2 4 4 4 4 2 2 2 4 4 4 
</DataArray>
<DataArray type="Float32" Name="creationTime" NumberOfComponents="1" format="ascii" >
0 0 2.68926 5.52982 2.9971 6.80192 4.13574 4.49818 4.49818 5.39041 6.71452 5.46743 5.92061 6.6039 0 5.60054 6.04501 6.4582 0 0 3.94668 4.42549 4.45977 4.75838 5.27613 5.27613 5.61007 6.73787 5.95672 6.79618 0 5.61453 6.48768 0 6.02473 6.70591 0 3.13137 4.31144 3.25343 3.96234 5.51011 4.09906 5.62677 4.7929 5.81627 6.67545 0 4.08475 4.49714 4.81371 5.19402 5.78042 6.35276 6.35276 6.60932 0 0 0 0 6.01616 6.29641 6.72774 0 0 0 
</DataArray>

</CellData>
<Points>
<DataArray type="Float32" Name="Coordinates" NumberOfComponents="3" format="ascii" >
0 0 -3 0.220499 -0.108795 -3.04521 0.43381 -0.198172 -3.14013 0.637897 -0.260559 -3.27035 0.785695 -0.362362 -3.44439 0.873122 -0.465912 -3.65447 0.977988 -0.603961 -3.8346 1.02489 -0.775438 -4.01037 1.01007 -0.914971 -4.21728 1.00707 -1.06014 -4.42079 1.0325 -1.21764 -4.61326 1.06786 -1.39445 -4.78644 1.04116 -1.54894 -4.98117 0.965678 -1.64759 -5.19812 0.917837 -1.73824 -5.42615 0.91008 -1.81955 -5.66243 0.902926 -1.90249 -5.89816 0.877969 -1.97947 -6.1347 0.862995 -2.08964 -6.35862 0.845002 -2.20944 -6.57731 0.828728 -2.30351 -6.80836 0.7986 -2.39496 -7.03907 0.789706 -2.4476 -7.28331 0.776681 -2.50456 -7.52638 0.670301 -2.56633 -7.74402 0.641049 -2.69288 -7.95764 0.62 -2.72252 -8.20498 0.531935 -2.78461 -8.43056 0.44535 -2.88334 -8.6433 0.354025 -2.98474 -8.85277 0.250826 -3.08479 -9.05732 0.118327 -3.08452 -9.26932 -0.00888721 -3.09594 -9.48423 -0.142695 -3.1756 -9.6798 -0.300909 -3.36852 -9.6957 -0.392426 -3.53809 -9.85498 -0.423984 -3.69803 -10.0445 -0.448409 -3.83853 -10.2498 -0.413568 -3.94721 -10.4723 -0.322379 -3.94311 -10.705 -0.328628 -3.92761 -10.7733 0 0 -3 -0.121243 -0.184758 -3.1169 -0.227384 -0.361996 -3.22097 -0.31401 -0.555229 -3.35385 -0.359568 -0.727082 -3.52961 -0.342789 -0.828472 -3.5987 -0.309654 -0.988134 -3.7882 -0.285273 -1.13949 -3.98567 -0.301525 -1.30856 -4.16911 -0.379506 -1.49673 -4.31407 -0.457392 -1.68503 -4.4589 -0.542543 -1.87734 -4.59406 -0.649022 -2.07423 -4.7054 -0.769791 -2.26571 -4.81146 -0.81064 -2.51114 -4.83586 -0.812957 -2.52063 -4.83502 -0.857016 -2.76318 -4.87662 -0.915379 -2.99533 -4.94873 -0.935414 -3.18125 -5.02994 -1.02319 -3.37422 -5.16244 -1.08507 -3.56916 -5.30621 -1.17601 -3.75075 -5.452 -1.23677 -3.90903 -5.63573 -1.32447 -4.05745 -5.81678 -1.37905 -4.21615 -6.00208 -1.35306 -4.31127 -6.17794 -1.32277 -4.35353 -6.31314 -1.28455 -4.41979 -6.55115 -1.26012 -4.47179 -6.79446 -1.32446 -4.454 -7.03538 -1.37553 -4.4212 -7.10942 -1.56831 -4.33213 -7.24134 -1.76161 -4.24519 -7.37391 -1.91747 -4.11588 -7.5205 -2.06837 -3.97253 -7.65898 -2.09106 -3.82944 -7.86272 -2.09233 -3.82837 -7.86684 -2.26509 -3.8213 -8.04741 -2.40584 -3.84168 -8.25302 -2.54511 -3.86134 -8.4597 -2.66129 -3.84785 -8.64619 -2.77992 -3.78883 -8.85819 -2.92043 -3.73233 -9.0571 -3.05038 -3.69752 -9.26781 -3.187 -3.65154 -9.47207 -3.31398 -3.61172 -9.68371 -3.41433 -3.58888 -9.91154 -3.44851 -3.55603 -10.0068 -3.43082 -3.45391 -10.2343 -3.43103 -3.30793 -10.4373 -3.44777 -3.17676 -10.6494 -3.46603 -3.11194 -10.7481 -3.47639 -2.97516 -10.9571 -3.47157 -2.81774 -11.1513 -3.46566 -2.65916 -11.3445 -3.4105 -2.49293 -11.5229 -3.36981 -2.41247 -11.6056 -3.28796 -2.24927 -11.7764 -3.14917 -2.1109 -11.9316 -3.00392 -2.02959 -12.1181 -2.88394 -1.93782 -12.3173 -2.81371 -1.88388 -12.4465 -2.75092 -1.80723 -12.6225 -0.227384 -0.361996 -3.22097 -0.0506013 -0.437062 -3.38101 0.112767 -0.459865 -3.56887 0.294671 -0.496932 -3.73632 0.393375 -0.55336 -3.84113 0.55109 -0.644859 -4.01217 0.656505 -0.736905 -4.11435 0.393375 -0.55336 -3.84113 0.479118 -0.62124 -3.61632 0.479425 -0.622212 -3.61498 -0.342789 -0.828472 -3.5987 -0.383397 -0.686065 -3.80012 -0.410896 -0.570001 -3.94118 -0.453036 -0.419821 -4.13655 -0.494636 -0.265972 -4.32917 -0.519039 -0.173182 -4.44294 -0.529983 -0.154615 -4.50208 -0.410896 -0.570001 -3.94118 -0.400425 -0.532843 -3.93665 -0.812957 -2.52063 -4.83502 -0.686745 -2.46519 -5.04358 -0.523478 -2.38349 -5.21437 -0.359707 -2.34308 -5.39888 -0.283535 -2.32016 -5.48973 -0.935414 -3.18125 -5.02994 -0.724735 -3.28778 -4.9477 -0.519142 -3.41487 -4.88381 -0.319647 -3.46338 -4.89562 -0.935414 -3.18125 -5.02994 -0.997125 -3.31728 -4.82948 -1.01098 -3.35079 -4.78187 -1.35306 -4.31127 -6.17794 -1.44207 -4.26189 -6.40628 -1.48337 -4.23053 -6.50766 -1.55596 -4.17901 -6.68265 -1.48337 -4.23053 -6.50766 -1.49742 -4.26782 -6.54526 -1.32277 -4.35353 -6.31314 -1.13258 -4.50617 -6.25809 -0.945457 -4.658 -6.19153 -0.904414 -4.69413 -6.1821 -1.37553 -4.4212 -7.10942 -1.29952 -4.5631 -7.3007 -1.28732 -4.67921 -7.39499 -2.09233 -3.82837 -7.86684 -2.21925 -3.91369 -7.86986 0 0 -3 0.201179 0.0636672 -3.13406 0.391078 0.11122 -3.28955 0.582718 0.153442 -3.44445 0.762939 0.213144 -3.6071 0.875719 0.305655 -3.81013 0.911689 0.328744 -3.86922 1.10345 0.391933 -4.01665 1.28494 0.417196 -4.18671 1.43573 0.499323 -4.36841 1.52104 0.548213 -4.47249 1.68763 0.663003 -4.61937 1.78576 0.813071 -4.79358 1.80078 0.989094 -4.97047 1.80691 1.04584 -5.01887 1.81518 1.2661 -5.13683 1.80449 1.48419 -5.25859 1.7794 1.69863 -5.38464 1.75113 1.87396 -5.56059 1.71209 2.05096 -5.73278 1.73798 2.15097 -5.96043 1.76691 2.27047 -6.17811 1.76713 2.28953 -6.21482 1.77404 2.40823 -6.43474 1.81355 2.51427 -6.65766 1.91202 2.58061 -6.87766 1.9693 2.63147 -7.03766 2.02134 2.68348 -7.27659 2.07648 2.76432 -7.50664 2.05421 2.78847 -7.68129 2.01715 2.83376 -7.92435 1.98818 2.8974 -8.16437 1.99079 3.05496 -8.35846 2.04142 3.20578 -8.5513 2.12518 3.28723 -8.77232 2.13172 3.2905 -8.7809 2.26116 3.40423 -8.96204 2.39588 3.53489 -9.1272 2.45973 3.68176 -9.31917 2.50046 3.83659 -9.51118 2.53586 3.98231 -9.71121 2.57023 4.17168 -9.87077 2.60203 4.36242 -10.0292 2.61627 4.48737 -10.1494 2.63543 4.66681 -10.3224 2.67192 4.84744 -10.4913 2.70718 5.02942 -10.6591 2.70024 5.1614 -10.7696 2.72587 5.31362 -10.9662 2.7384 5.46827 -11.1623 2.80032 5.62589 -11.3462 2.8807 5.75835 -11.5424 2.95117 5.8124 -11.6235 3.10227 5.93047 -11.7839 3.25503 6.04466 -11.9456 3.38778 6.15196 -12.1282 3.5334 6.26232 -12.2989 3.64358 6.42767 -12.4506 3.83969 6.53731 -12.5602 4.03146 6.62065 -12.6973 4.20838 6.70434 -12.8528 4.37388 6.8425 -12.9794 4.52327 6.9659 -13.0982 4.66468 7.06914 -13.2766 4.73175 7.16245 -13.4391 0.911689 0.328744 -3.86922 1.13254 0.211599 -3.86738 1.35045 0.0891641 -3.87226 1.36849 0.0792598 -3.87391 1.52104 0.548213 -4.47249 1.64075 0.762587 -4.42545 1.69019 0.854631 -4.4044 1.80691 1.04584 -5.01887 1.88821 0.9215 -5.16746 0 0 -3 0.069794 0.17517 -2.83585 0.191178 0.357764 -2.71575 0.296793 0.562575 -2.6188 0.368102 0.785414 -2.53073 0.447484 1.0075 -2.4478 0.535611 1.21123 -2.33278 0.575367 1.38305 -2.18856 0.657735 1.60227 -2.10105 0.737563 1.83279 -2.1557 0.711323 2.07433 -2.21458 0.709176 2.09507 -2.21969 0.585336 2.3106 -2.24632 0.531861 2.41652 -2.25561 0.409221 2.62838 -2.30635 0.301482 2.84708 -2.36169 0.174903 3.04465 -2.44798 0.0577925 3.24793 -2.53437 -0.0316206 3.44809 -2.65453 -0.0710878 3.67916 -2.74142 -0.0741193 3.85555 -2.91855 -0.0850269 3.9426 -3.0613 -0.131026 4.04037 -3.28674 -0.239865 4.20251 -3.44283 -0.3473 4.32688 -3.63122 -0.351598 4.33399 -3.64795 -0.349651 4.39597 -3.89014 -0.327181 4.47264 -4.12703 -0.401534 4.54883 -4.35323 -0.488566 4.61432 -4.57826 -0.574685 4.6849 -4.80209 -0.583295 4.69497 -4.94598 -0.581351 4.67717 -5.19534 -0.582979 4.64515 -5.44327 -0.579022 4.62418 -5.69236 -0.656859 4.53295 -5.91172 -0.737022 4.43528 -6.12744 -0.794335 4.29304 -6.32488 -0.812399 4.25775 -6.37487 -0.859623 4.08016 -6.54437 -0.917207 3.89635 -6.70374 -0.934186 3.71885 -6.87897 -0.935921 3.69382 -6.90394 -0.932477 3.53584 -7.09767 -0.929192 3.37755 -7.29114 -0.925329 3.16643 -7.42499 -0.928734 2.94049 -7.53194 -0.986086 2.73646 -7.66454 -0.942116 2.54244 -7.81594 -0.860852 2.3274 -7.91418 -0.819226 2.26648 -7.94842 -0.707768 2.08621 -8.08101 -0.544509 1.91879 -8.16942 -0.36718 1.78364 -8.28252 -0.26693 1.61542 -8.43792 -0.147121 1.48674 -8.61565 -0.123896 1.45751 -8.66844 0 0 -3 -0.234497 0.0784341 -3.03687 -0.456359 0.171778 -3.10443 -0.674797 0.280492 -3.15889 -0.860391 0.430264 -3.23387 -1.02335 0.581455 -3.34827 -1.17916 0.727385 -3.47838 -1.3542 0.903077 -3.50989 -1.51911 1.08434 -3.55937 -1.69101 1.26402 -3.53359 -1.88007 1.42051 -3.48597 -2.06448 1.585 -3.4481 -2.06913 1.59304 -3.4469 -2.25157 1.76096 -3.41495 -2.43191 1.93002 -3.37761 -2.58496 2.11592 -3.31039 -2.7559 2.27799 -3.22665 -2.77612 2.30163 -3.21925 -2.90013 2.50745 -3.15025 -3.03669 2.69855 -3.06463 -3.09294 2.7712 -3.0389 -3.22054 2.97998 -2.9876 -3.38368 3.13162 -2.87407 -3.52392 3.32351 -2.95162 -3.72739 3.46739 -2.97152 -3.74614 3.48074 -2.97581 -3.74615 3.48075 -2.97581 -3.97116 3.55914 -3.05147 -4.1965 3.51618 -3.15085 -4.33494 3.48419 -3.21057 -4.55291 3.43606 -3.32313 -4.74297 3.29201 -3.39817 -4.86168 3.18007 -3.45891 -5.04849 3.01841 -3.49725 -5.22454 2.84761 -3.54556 -5.413 2.69587 -3.60845 -5.62956 2.6453 -3.72265 -5.8594 2.63734 -3.82069 -6.05229 2.66661 -3.97702 -6.1294 2.68768 -4.05537 -6.30343 2.76062 -4.21937 -6.4868 2.81767 -4.37943 -6.67093 2.86096 -4.54289 -6.84077 2.84948 -4.72599 -6.92242 2.72926 -4.92941 -6.96418 2.66331 -5.01946 -7.03504 2.54151 -5.22596 -7.13631 2.46295 -5.44061 -7.24733 2.37624 -5.64714 -7.35788 2.28998 -5.85412 -7.36797 2.2843 -5.88017 -7.37412 2.32786 -6.12626 -7.40518 2.35354 -6.37299 -7.45913 2.36651 -6.61676 -7.46034 2.36671 -6.62245 -7.45588 2.36779 -6.8724 -7.45169 2.36751 -7.12237 -7.4333 2.33945 -7.37011 -7.49793 2.31518 -7.61039 -7.56058 2.29871 -7.85185 -7.56945 2.29073 -7.9983 -7.58431 2.2773 -8.24749 -7.59186 2.26592 -8.49712 -7.59652 2.22365 -8.74348 -7.59695 2.21129 -8.81357 -7.59274 2.16125 -9.05847 -7.57076 2.15056 -9.30727 -7.57073 2.15092 -9.32889 -7.56299 2.14225 -9.38943 -2.06913 1.59304 -3.4469 -2.17214 1.69401 -3.5166 -2.34787 1.81239 -3.64928 -2.54846 1.8757 -3.7844 -2.68976 1.89011 -3.8795 -2.17214 1.69401 -3.5166 -2.40809 1.77476 -3.4991 -2.56691 1.81062 -3.49827 -2.77612 2.30163 -3.21925 -3.00687 2.20624 -3.20677 -3.21207 2.06405 -3.22007 -3.40975 1.91114 -3.22648 -3.50938 1.86979 -3.25558 -3.09294 2.7712 -3.0389 -2.86837 2.87474 -3.00218 -2.63185 2.9494 -2.97088 -2.38773 3.00259 -2.97986 -2.34506 3.00708 -2.98666 -3.74614 3.48074 -2.97581 -3.96703 3.36519 -2.99465 -4.18841 3.2495 -3.005 -4.30262 3.22008 -3.01397 -3.74615 3.48075 -2.97581 -3.91308 3.32865 -2.86858 -4.0469 3.19543 -2.70473 -4.08756 3.16408 -2.65156 -4.08785 3.16392 -2.65129 -4.33494 3.48419 -3.21057 -4.4765 3.47346 -3.00479 -4.48477 3.46934 -2.99163 -4.58641 3.41261 -2.78644 -4.48477 3.46934 -2.99163 -4.53318 3.47752 -2.98796 -4.86168 3.18007 -3.45891 -4.97043 3.09834 -3.66866 -5.03125 3.06609 -3.79022 -6.1294 2.68768 -4.05537 -6.16879 2.67535 -3.98622 0 0 -3 0.182254 0.116618 -3.12524 0.426242 0.125396 -3.17902 0.644933 0.056996 -3.279 0.72626 0.0337746 -3.31459 0.956271 -0.0154719 -3.39927 1.1831 -0.0706549 -3.48874 1.40711 -0.0895509 -3.59811 1.63994 -0.126459 -3.68134 1.82897 -0.165116 -3.84032 2.0258 -0.194205 -3.99168 2.0791 -0.197649 -4.03417 2.26746 -0.156726 -4.19338 2.44463 -0.128736 -4.36752 2.62801 -0.0940804 -4.53387 2.74913 -0.0779364 -4.65111 2.91238 -0.0865558 -4.84025 3.067 -0.101645 -5.03612 3.18498 -0.153531 -5.25034 3.32064 -0.19685 -5.45581 3.38035 -0.217715 -5.52878 3.52128 -0.217902 -5.73527 3.6656 -0.220165 -5.93939 3.85982 -0.199415 -6.09543 3.95237 -0.174623 -6.14067 4.13889 -0.129625 -6.30094 4.31333 -0.0931161 -6.47625 4.51762 -0.0949799 -6.62034 4.64149 -0.0277387 -6.82683 4.69924 0.0570188 -7.05482 4.73065 0.109144 -7.20394 4.72733 0.159505 -7.4488 4.76277 0.25423 -7.67742 4.80172 0.354282 -7.90319 4.81073 0.362689 -7.9394 4.83084 0.396722 -8.18626 4.85272 0.43195 -8.4328 4.85692 0.413991 -8.68211 4.90827 0.412796 -8.92678 4.89666 0.403606 -9.17634 4.90008 0.398213 -9.35052 4.92396 0.374233 -9.59822 4.94744 0.345082 -9.8454 4.95047 0.309723 -10.0929 4.98471 0.321733 -10.3402 5.02926 0.293596 -10.5846 5.04784 0.301444 -10.8338 5.0745 0.210287 -10.9609 5.13153 0.110615 -11.183 5.19024 -2.34376e-05 -11.3994 5.22181 -0.0627886 -11.6393 5.19557 -0.126613 -11.8796 5.09732 -0.227665 -12.0861 5.00851 -0.337683 -12.1469 4.89095 -0.460157 -12.3305 4.72826 -0.567003 -12.4874 4.63939 -0.72617 -12.6584 4.62486 -0.809073 -12.8938 4.61904 -0.900756 -13.1263 4.59556 -0.916686 -13.2973 4.59556 -0.916687 -13.2973 4.59398 -0.919792 -13.3089 4.52956 -0.919781 -13.5504 4.52148 -0.905053 -13.6213 0.72626 0.0337746 -3.31459 0.751788 -0.0226759 -3.55679 0.748807 -0.0112494 -3.78335 2.0791 -0.197649 -4.03417 2.00694 -0.377414 -4.06842 0 0 -3 0.171278 -0.154764 -3.09598 0.340935 -0.280923 -3.2294 0.488441 -0.402399 -3.3906 0.591602 -0.521206 -3.58487 0.702352 -0.579783 -3.80121 0.752526 -0.691304 -4.01926 0.764416 -0.729443 -4.26605 0.772256 -0.737555 -4.31109 0.823819 -0.76924 -4.55366 0.783014 -0.846498 -4.78789 0.752647 -0.853558 -5.03594 0.723839 -0.86926 -5.28378 0.718912 -0.870342 -5.53373 0.712746 -0.884129 -5.63184 0.691202 -0.967976 -5.86638 0.630819 -0.962325 -6.10891 0.651544 -0.978218 -6.35754 0.67293 -0.975983 -6.60661 0.633634 -1.02449 -6.84869 0.592613 -1.01873 -6.91299 0.464555 -1.00338 -7.12716 0.320151 -0.871517 -7.28291 0.228699 -0.753024 -7.45565 0.106014 -0.670194 -7.65712 -0.0244867 -0.568604 -7.8446 -0.182051 -0.47723 -8.01584 -0.341011 -0.38409 -8.18483 -0.505653 -0.290493 -8.34802 -0.71186 -0.223629 -8.47255 -0.915787 -0.151626 -8.59797 -0.975556 -0.133896 -8.64352 -1.15368 -0.0860491 -8.81229 -1.29247 -0.109705 -9.01888 -1.395 -0.276329 -9.17452 -1.51267 -0.457473 -9.30038 -1.65437 -0.626429 -9.41817 -1.81933 -0.796166 -9.49866 -1.8933 -0.851252 -9.54895 -2.06707 -0.971206 -9.6828 -2.2567 -1.07474 -9.80858 -2.41779 -1.20524 -9.94829 -2.51288 -1.32038 -10.0525 -2.65082 -1.47766 -10.1894 -2.72725 -1.69877 -10.2776 -2.80259 -1.91309 -10.3819 -2.88083 -2.12712 -10.4847 -2.89071 -2.17721 -10.5258 -2.97674 -2.32767 -10.7059 -3.02291 -2.45715 -10.9148 -3.05721 -2.57012 -11.1351 -3.01001 -2.67636 -11.3564 -2.99631 -2.77385 -11.553 -3.01998 -2.87663 -11.7797 -2.9587 -2.94783 -12.0113 -2.89813 -3.00432 -12.2038 -2.83687 -3.04973 -12.4419 -2.76361 -3.11505 -12.6718 -2.72785 -3.20687 -12.9016 -2.76262 -3.24612 -13.146 -2.75862 -3.24775 -13.1875 -2.68093 -3.30786 -13.4174 -2.59493 -3.29997 -13.652 -2.52311 -3.30344 -13.8915 -2.49611 -3.26835 -14.079 0.772256 -0.737555 -4.31109 0.759033 -0.789643 -4.55525 0.760853 -0.810181 -4.67115 0.712746 -0.884129 -5.63184 0.610951 -0.932304 -5.61514 0 0 -3 0.135891 0.142644 -2.8461 0.137212 0.144115 -2.84479 0.294955 0.288826 -2.71565 0.466725 0.424267 -2.59461 0.694186 0.475708 -2.50453 0.925392 0.47632 -2.40943 1.16956 0.464841 -2.35697 1.37041 0.469184 -2.32145 1.61597 0.422357 -2.32383 1.64304 0.426778 -2.31763 1.89211 0.448315 -2.31771 2.13954 0.44411 -2.35321 2.37714 0.457484 -2.42983 2.62283 0.432558 -2.46874 2.85379 0.343184 -2.50295 2.99968 0.312683 -2.52075 3.18558 0.162793 -2.44676 3.30574 -0.0438751 -2.37361 3.46619 -0.230046 -2.32783 3.61727 -0.377379 -2.19379 3.71713 -0.58434 -2.09532 3.842 -0.791458 -2.032 3.85559 -1.04104 -2.03676 3.87078 -1.28963 -2.05857 3.87262 -1.32035 -2.06134 3.85215 -1.56277 -2.11889 3.76853 -1.79402 -2.07379 3.70952 -2.02469 -2.15001 3.75192 -2.2433 -2.26364 3.80752 -2.45941 -2.37634 3.83865 -2.67805 -2.4935 3.86902 -2.82762 -2.57744 3.90208 -3.04257 -2.70074 3.93113 -3.22852 -2.8653 3.95235 -3.39773 -3.04811 3.95396 -3.56164 -3.23687 3.96832 -3.70021 -3.44445 3.95655 -3.76719 -3.55833 3.94549 -3.86975 -3.72973 3.97441 -3.97685 -3.95377 3.97 -4.04346 -4.19469 4.03587 -4.13456 -4.41799 4.03884 -4.13749 -4.42613 4.14061 -4.23671 -4.6318 4.19042 -4.32905 -4.85872 4.21176 -4.43787 -5.08278 4.21948 -4.52874 -5.31556 4.19034 -4.66234 -5.5141 4.17208 -4.80852 -5.71608 4.19132 -4.9479 -5.92273 4.16187 -5.07558 -6.13564 4.13904 -5.20184 -6.35021 4.12457 -5.25939 -6.49288 4.15973 -5.32268 -6.73217 4.16769 -5.39923 -6.97002 4.17797 -5.45062 -7.21447 4.19139 -5.44791 -7.46409 4.21766 -5.43219 -7.71221 4.14894 -5.33671 -7.93281 4.08802 -5.23417 -8.15252 4.01272 -5.13088 -8.36737 4.02723 -5.0825 -8.558 4.14887 -5.13723 -8.76945 4.18797 -5.14678 -8.88684 0 0 -3 0.038207 0.025804 -3.03309 0.226285 0.14013 -3.15165 0.40168 0.229651 -3.30567 0.569167 0.293479 -3.47995 0.636815 0.315278 -3.55 0.705663 0.344232 -3.64866 0.038207 0.025804 -3.03309 -0.0110032 0.0706836 -3.27406 -0.0433114 0.105336 -3.42253 0.137212 0.144115 -2.84479 0.293726 0.199094 -2.65776 0.43907 0.236666 -2.45785 0.515712 0.23983 -2.32221 0.642549 0.252817 -2.10716 0.759966 0.280803 -1.88823 0.788368 0.287042 -1.83541 1.37041 0.469184 -2.32145 1.56639 0.555301 -2.45057 1.77284 0.678911 -2.51841 1.978 0.730034 -2.65181 2.09267 0.752991 -2.75357 1.37041 0.469184 -2.32145 1.46949 0.406398 -2.50468 1.64304 0.426778 -2.31763 1.8267 0.491681 -2.16091 1.85478 0.494028 -2.13797 2.06763 0.508383 -2.00763 2.30325 0.466583 -1.93524 2.39331 0.448233 -1.92296 1.85478 0.494028 -2.13797 1.89241 0.636252 -2.0319 2.99968 0.312683 -2.52075 3.17766 0.142737 -2.47666 3.36009 -0.0236805 -2.43765 3.47789 -0.126956 -2.42774 3.56915 -0.198331 -2.41466 3.87262 -1.32035 -2.06134 3.8981 -1.49972 -1.88906 3.91639 -1.64154 -1.76001 3.86902 -2.82762 -2.57744 3.81883 -2.82101 -2.69416 0 0 -3 0.0838833 -0.235246 -3.01109 0.175665 -0.466316 -2.98496 0.188611 -0.52203 -2.98649 0.228555 -0.766576 -3.01968 0.281749 -1.00625 -3.06684 0.257215 -1.19447 -3.04124 0.296191 -1.44137 -3.04571 0.366967 -1.67512 -3.0991 0.372143 -1.69289 -3.09619 0.447196 -1.93136 -3.09584 0.417151 -2.13229 -3.24152 0.421858 -2.21469 -3.31364 0.284928 -2.40242 -3.40586 0.186987 -2.59392 -3.53328 0.105813 -2.80275 -3.64419 0.0293963 -2.91335 -3.73396 -0.0817002 -3.09402 -3.8663 -0.238645 -3.24983 -3.98289 -0.365635 -3.4383 -4.08707 -0.427075 -3.50601 -4.1441 -0.554216 -3.67289 -4.28006 -0.625942 -3.75401 -4.34155 -0.778798 -3.88975 -4.48546 -0.905981 -4.08301 -4.5802 -1.02376 -4.29285 -4.64797 -1.09661 -4.5086 -4.75114 -1.09273 -4.74014 -4.84534 -1.09756 -4.88109 -4.90837 -1.15511 -5.10334 -5.0073 -1.27083 -5.31232 -5.08105 -1.39787 -5.50269 -5.18165 -1.41657 -5.66517 -5.37073 -1.46937 -5.82877 -5.55224 -1.58818 -5.9091 -5.75701 -1.70923 -5.97395 -5.87866 -1.93758 -6.06481 -5.92446 -2.16577 -6.15566 -5.97113 -2.26057 -6.17761 -5.99355 -2.50157 -6.21547 -6.04816 -2.73848 -6.21752 -6.12798 -2.96164 -6.26752 -6.22897 -3.18497 -6.31856 -6.32906 -3.35438 -6.47115 -6.43161 -3.4344 -6.65844 -6.57659 -3.43824 -6.82197 -6.75262 -3.44255 -6.9917 -6.93612 -3.45739 -7.1636 -7.11704 -3.53163 -7.32624 -7.29179 -3.61726 -7.3985 -7.51527 -3.69873 -7.50234 -7.72759 -3.75727 -7.62114 -7.91076 -3.73631 -7.7359 -8.13188 -3.78136 -7.77258 -8.37503 -3.79356 -7.74991 -8.6237 -3.82838 -7.62491 -8.83739 -3.82571 -7.61931 -8.85247 0.188611 -0.52203 -2.98649 0.0758985 -0.583759 -3.20093 -0.0578769 -0.666518 -3.39524 -0.232808 -0.694618 -3.57162 -0.333912 -0.672174 -3.73545 0.257215 -1.19447 -3.04124 0.417936 -1.35128 -3.15115 0.495866 -1.58019 -3.21461 0.526236 -1.69304 -3.24366 0.582107 -1.91177 -3.3169 0.372143 -1.69289 -3.09619 0.261013 -1.84567 -3.25992 0.166189 -1.98825 -3.44207 0.069057 -2.08463 -3.6513 0.0676472 -2.08534 -3.6538 0.421858 -2.21469 -3.31364 0.656575 -2.20597 -3.39927 0.869609 -2.27737 -3.5089 0.970188 -2.31208 -3.60059 0.0293963 -2.91335 -3.73396 -0.217514 -2.88705 -3.76301 -0.405938 -2.85508 -3.7981 -0.427075 -3.50601 -4.1441 -0.288698 -3.68262 -4.08114 -0.427075 -3.50601 -4.1441 -0.439037 -3.61986 -4.10581 -0.625942 -3.75401 -4.34155 -0.644181 -3.8948 -4.39856 0 0 -3 0.234276 0.038103 -3.07851 0.464901 0.0630804 -3.17172 0.695946 0.0891055 -3.26359 0.924203 0.0563443 -3.36016 1.16173 0.0548001 -3.43811 1.39875 0.0172464 -3.5082 1.64805 0.00835198 -3.52471 1.89154 0.018975 -3.58035 2.13511 0.0244595 -3.63642 2.36674 0.101382 -3.69059 2.60735 0.0345085 -3.70213 2.83463 -0.0510081 -3.76155 3.0734 -0.116894 -3.79543 3.29329 -0.191255 -3.88827 3.51835 -0.233142 -3.98873 3.71005 -0.242884 -4.14891 3.88686 -0.202461 -4.32097 4.0607 -0.1549 -4.49422 4.18455 -0.135149 -4.71049 4.37152 -0.171229 -4.87247 4.53701 -0.189198 -5.059 4.73347 -0.230115 -5.20809 4.79782 -0.251214 -5.24591 0 0 -3 0.117853 -0.0288402 -3.21858 0.192809 -0.0715716 -3.45322 0.220134 -0.168578 -3.68201 0.199601 -0.239347 -3.9209 0.149101 -0.217269 -4.16475 0.13416 -0.218127 -4.4143 0.110045 -0.171448 -4.65872 0.114954 -0.11844 -4.90299 0.142256 -0.0319972 -5.13597 0.179304 0.00629266 -5.38023 0.20459 0.0202297 -5.62856 0.189883 0.044971 -5.87689 0.0809752 -0.0205771 -6.09217 -0.00705805 -0.0278919 -6.32604 -0.0788493 0.0256838 -6.55944 -0.152409 0.0966852 -6.78758 -0.242226 0.188876 -7.0019 -0.297013 0.30286 -7.21755 -0.352254 0.415738 -7.43367 -0.388774 0.536495 -7.64951 -0.436934 0.679703 -7.84868 -0.431013 0.777848 -8.07854 -0.41963 0.867824 -8.31151 -0.358705 0.941664 -8.54245 -0.275903 1.00987 -8.76827 -0.349175 1.15985 -8.95437 -0.358344 1.28336 -9.17154 -0.4