<?xml version="1.0"?><VTKFile type="PolyData" version="0.1" byte_order="LittleEndian">
<PolyData>
<Piece NumberOfLines="45" NumberOfPoints="47">
<CellData Scalars=" CellData">
<DataArray type="Float32" Name="radius" NumberOfComponents="1" format="ascii" >
0.0436 0.0436 0.0436 0.0436 0.0436 0.0436 0.0436 0.0436 0.0436 0.0436 0.0436 0.0436 0.0436 0.0436 0.0436 0.0436 0.0436 0.0436 0.0436 0.0436 0.0436 0.0436 0.0436 0.0436 0.0436 0.0436 0.0436 0.0436 0.0436 0.0436 0.0436 0.0436 0.0436 0.0436 0.0436 0.0436 0.0436 0.0436 0.0436 0.0436 0.0436 0.0436 0.0436 0.0436 0.0436 
</DataArray>
<DataArray type="Float32" Name="subType" NumberOfComponents="1" format="ascii" >
1 1 1 1 1 1 1 1 1 1 4 4 4 4 4 4 4 4 4 4 4 4 4 4 4 4 4 4 4 4 4 4 4 4 4 4 4 4 4 4 4 5 5 5 5 
</DataArray>
<DataArray type="Float32" Name="creationTime" NumberOfComponents="1" format="ascii" >
0.3125 0.625 0.8604 1.1729 1.21615 1.52865 1.57191 1.88441 1.92766 2 0.8125 1.125 1.3604 1.6729 1.71615 2 0.9125 1.225 1.4604 1.7729 1.81615 2 1.0125 1.325 1.5604 1.8729 1.91615 2 1.1125 1.425 1.6604 1.9729 2 1.2125 1.525 1.7604 2 1.3125 1.625 1.8604 2 1.3125 1.625 1.8604 2 
</DataArray>
<DataArray type="Float32" Name="organType" NumberOfComponents="1" format="ascii" >
2 2 2 2 2 2 2 2 2 2 2 2 2 2 2 2 2 2 2 2 2 2 2 2 2 2 2 2 2 2 2 2 2 2 2 2 2 2 2 2 2 2 2 2 2 
</DataArray>

</CellData>
<Points>
<DataArray type="Float32" Name="Coordinates" NumberOfComponents="3" format="ascii" >
0 0 -3 -0.0406714 -0.0454438 -3.49627 -0.0764191 -0.106548 -3.99123 -0.00663253 -0.152505 -4.35848 0.0687606 -0.115481 -4.85138 0.0579165 -0.109538 -4.91947 -0.0234898 -0.0741915 -5.41153 -0.027395 -0.0687279 -5.48041 -0.0549266 -0.0306247 -5.97819 -0.0597868 -0.0294939 -6.04722 -0.0709723 -0.0269245 -6.16239 -0.314853 -0.372789 -3.10907 -0.585432 -0.765729 -3.25868 -0.778715 -1.07108 -3.36479 -1.05202 -1.46578 -3.5045 -1.08932 -1.5207 -3.52403 -1.33115 -1.882 -3.65533 0.495055 0.0615247 -3.03369 0.990611 0.127398 -3.04294 1.36333 0.176597 -3.06572 1.8591 0.228883 -3.10419 1.92669 0.238878 -3.11517 2.21428 0.275286 -3.16511 -0.129386 -0.476484 -3.07888 -0.230394 -0.962911 -3.13532 -0.369032 -1.3125 -3.11466 -0.57994 -1.76454 -3.08042 -0.603574 -1.82946 -3.07634 -0.646786 -1.95606 -3.06616 -0.495787 0.04567 -3.04593 -0.987858 0.121218 -3.09239 -1.35909 0.175657 -3.12527 -1.84221 0.30392 -3.11346 -1.88311 0.315484 -3.12207 0.322987 0.344741 -3.16381 0.573021 0.729945 -3.36155 0.725409 1.00149 -3.57344 0.860768 1.2807 -3.79858 0.27341 -0.416526 -3.04187 0.54449 -0.834337 -3.08602 0.730116 -1.16183 -3.09833 0.832762 -1.35889 -3.12113 0 0 -1.5 0.426646 -0.000184799 -1.76072 0.797885 0.042859 -2.09287 1.0747 0.0724925 -2.34656 1.23966 0.0885166 -2.4963 
</DataArray>
</Points>
<Lines>
<DataArray type="Int32" Name="connectivity" NumberOfComponents="1" format="ascii" >
0 1 1 2 2 3 3 4 4 5 5 6 6 7 7 8 8 9 9 10 0 11 11 12 12 13 13 14 14 15 15 16 0 17 17 18 18 19 19 20 20 21 21 22 0 23 23 24 24 25 25 26 26 27 27 28 0 29 29 30 30 31 31 32 32 33 0 34 34 35 35 36 36 37 0 38 38 39 39 40 40 41 42 43 43 44 44 45 45 46 
</DataArray>
<DataArray type="Int32" Name="offsets" NumberOfComponents="1" format="ascii" >
2 4 6 8 10 12 14 16 18 20 22 24 26 28 30 32 34 36 38 40 42 44 46 48 50 52 54 56 58 60 62 64 66 68 70 72 74 76 78 80 82 84 86 88 90 
</DataArray>

</Lines>
</Piece>
</PolyData>
</VTKFile>
