<?xml version="1.0"?><VTKFile type="PolyData" version="0.1" byte_order="LittleEndian">
<PolyData>
<Piece NumberOfLines="1401" NumberOfPoints="1403">
<CellData Scalars=" CellData">
<DataArray type="Float32" Name="radius" NumberOfComponents="1" format="ascii" >
0.0436 0.0436 0.0436 0.0436 0.0436 0.0436 0.0436 0.0436 0.0436 0.0436 0.0436 0.0436 0.0436 0.0436 0.0436 0.0436 0.0436 0.0436 0.0436 0.0436 0.0436 0.0436 0.0436 0.0436 0.0436 0.0436 0.0436 0.0436 0.0436 0.0436 0.0436 0.0436 0.0436 0.0436 0.0436 0.0436 0.0436 0.0436 0.0436 0.0436 0.0436 0.0436 0.0436 0.0436 0.0436 0.0436 0.0436 0.0436 0.0436 0.0436 0.0436 0.0436 0.0436 0.0436 0.0436 0.0436 0.0436 0.0436 0.0436 0.0436 0.02 0.02 0.02 0.02 0.02 0.01 0.01 0.02 0.02 0.02 0.02 0.02 0.01 0.01 0.02 0.02 0.02 0.02 0.02 0.01 0.01 0.02 0.02 0.02 0.02 0.02 0.01 0.01 0.02 0.02 0.02 0.02 0.02 0.01 0.01 0.02 0.02 0.02 0.02 0.02 0.01 0.01 0.02 0.02 0.02 0.02 0.02 0.01 0.02 0.02 0.02 0.02 0.02 0.02 0.02 0.02 0.02 0.02 0.02 0.02 0.02 0.02 0.02 0.02 0.02 0.0436 0.0436 0.0436 0.0436 0.0436 0.0436 0.0436 0.0436 0.0436 0.0436 0.0436 0.0436 0.0436 0.0436 0.0436 0.0436 0.0436 0.0436 0.0436 0.0436 0.0436 0.0436 0.0436 0.0436 0.0436 0.0436 0.0436 0.0436 0.0436 0.0436 0.0436 0.0436 0.0436 0.0436 0.0436 0.0436 0.0436 0.0436 0.0436 0.0436 0.0436 0.0436 0.0436 0.0436 0.0436 0.0436 0.0436 0.0436 0.0436 0.0436 0.0436 0.0436 0.0436 0.0436 0.0436 0.0436 0.0436 0.0436 0.02 0.02 0.02 0.02 0.02 0.01 0.01 0.02 0.02 0.02 0.02 0.02 0.01 0.01 0.02 0.02 0.02 0.02 0.02 0.01 0.01 0.02 0.02 0.02 0.02 0.02 0.01 0.01 0.02 0.02 0.02 0.02 0.02 0.01 0.01 0.02 0.02 0.02 0.02 0.02 0.02 0.02 0.02 0.02 0.02 0.02 0.02 0.02 0.02 0.02 0.02 0.02 0.02 0.02 0.0436 0.0436 0.0436 0.0436 0.0436 0.0436 0.0436 0.0436 0.0436 0.0436 0.0436 0.0436 0.0436 0.0436 0.0436 0.0436 0.0436 0.0436 0.0436 0.0436 0.0436 0.0436 0.0436 0.0436 0.0436 0.0436 0.0436 0.0436 0.0436 0.0436 0.0436 0.0436 0.0436 0.0436 0.0436 0.0436 0.0436 0.0436 0.0436 0.0436 0.0436 0.0436 0.0436 0.0436 0.0436 0.0436 0.0436 0.0436 0.0436 0.0436 0.0436 0.0436 0.0436 0.0436 0.0436 0.0436 0.02 0.02 0.02 0.02 0.02 0.01 0.01 0.02 0.02 0.02 0.02 0.02 0.01 0.01 0.02 0.02 0.02 0.02 0.02 0.01 0.01 0.02 0.02 0.02 0.02 0.02 0.01 0.01 0.02 0.02 0.02 0.02 0.02 0.01 0.01 0.02 0.02 0.02 0.02 0.02 0.02 0.02 0.02 0.02 0.02 0.02 0.02 0.02 0.02 0.02 0.02 0.02 0.02 0.0436 0.0436 0.0436 0.0436 0.0436 0.0436 0.0436 0.0436 0.0436 0.0436 0.0436 0.0436 0.0436 0.0436 0.0436 0.0436 0.0436 0.0436 0.0436 0.0436 0.0436 0.0436 0.0436 0.0436 0.0436 0.0436 0.0436 0.0436 0.0436 0.0436 0.0436 0.0436 0.0436 0.0436 0.0436 0.0436 0.0436 0.0436 0.0436 0.0436 0.0436 0.0436 0.0436 0.0436 0.0436 0.0436 0.0436 0.0436 0.0436 0.0436 0.0436 0.0436 0.0436 0.0436 0.0436 0.0436 0.02 0.02 0.02 0.02 0.02 0.01 0.01 0.02 0.02 0.02 0.02 0.02 0.01 0.01 0.02 0.02 0.02 0.02 0.02 0.01 0.01 0.02 0.02 0.02 0.02 0.02 0.01 0.01 0.02 0.02 0.02 0.02 0.02 0.01 0.02 0.02 0.02 0.02 0.02 0.02 0.02 0.02 0.02 0.02 0.02 0.02 0.02 0.02 0.02 0.02 0.02 0.0436 0.0436 0.0436 0.0436 0.0436 0.0436 0.0436 0.0436 0.0436 0.0436 0.0436 0.0436 0.0436 0.0436 0.0436 0.0436 0.0436 0.0436 0.0436 0.0436 0.0436 0.0436 0.0436 0.0436 0.0436 0.0436 0.0436 0.0436 0.0436 0.0436 0.0436 0.0436 0.0436 0.0436 0.0436 0.0436 0.0436 0.0436 0.0436 0.0436 0.0436 0.0436 0.0436 0.0436 0.0436 0.0436 0.0436 0.0436 0.0436 0.0436 0.0436 0.0436 0.0436 0.0436 0.0436 0.0436 0.02 0.02 0.02 0.02 0.02 0.01 0.01 0.02 0.02 0.02 0.02 0.02 0.01 0.01 0.02 0.02 0.02 0.02 0.02 0.01 0.01 0.02 0.02 0.02 0.02 0.02 0.01 0.01 0.02 0.02 0.02 0.02 0.02 0.01 0.02 0.02 0.02 0.02 0.02 0.02 0.02 0.02 0.02 0.02 0.02 0.02 0.02 0.02 0.02 0.0436 0.0436 0.0436 0.0436 0.0436 0.0436 0.0436 0.0436 0.0436 0.0436 0.0436 0.0436 0.0436 0.0436 0.0436 0.0436 0.0436 0.0436 0.0436 0.0436 0.0436 0.0436 0.0436 0.0436 0.0436 0.0436 0.0436 0.0436 0.0436 0.0436 0.0436 0.0436 0.0436 0.0436 0.0436 0.0436 0.0436 0.0436 0.0436 0.0436 0.0436 0.0436 0.0436 0.0436 0.0436 0.0436 0.0436 0.0436 0.0436 0.0436 0.0436 0.0436 0.0436 0.0436 0.0436 0.02 0.02 0.02 0.02 0.02 0.01 0.01 0.02 0.02 0.02 0.02 0.02 0.01 0.01 0.02 0.02 0.02 0.02 0.02 0.01 0.01 0.02 0.02 0.02 0.02 0.02 0.01 0.01 0.02 0.02 0.02 0.02 0.02 0.02 0.02 0.02 0.02 0.02 0.02 0.02 0.02 0.02 0.02 0.02 0.02 0.02 0.0436 0.0436 0.0436 0.0436 0.0436 0.0436 0.0436 0.0436 0.0436 0.0436 0.0436 0.0436 0.0436 0.0436 0.0436 0.0436 0.0436 0.0436 0.0436 0.0436 0.0436 0.0436 0.0436 0.0436 0.0436 0.0436 0.0436 0.0436 0.0436 0.0436 0.0436 0.0436 0.0436 0.0436 0.0436 0.0436 0.0436 0.0436 0.0436 0.0436 0.0436 0.0436 0.0436 0.0436 0.0436 0.0436 0.0436 0.0436 0.0436 0.0436 0.0436 0.0436 0.0436 0.0436 0.02 0.02 0.02 0.02 0.02 0.01 0.01 0.02 0.02 0.02 0.02 0.02 0.01 0.01 0.02 0.02 0.02 0.02 0.02 0.01 0.01 0.02 0.02 0.02 0.02 0.02 0.01 0.02 0.02 0.02 0.02 0.02 0.02 0.02 0.02 0.02 0.02 0.02 0.02 0.02 0.02 0.02 0.02 0.02 0.0436 0.0436 0.0436 0.0436 0.0436 0.0436 0.0436 0.0436 0.0436 0.0436 0.0436 0.0436 0.0436 0.0436 0.0436 0.0436 0.0436 0.0436 0.0436 0.0436 0.0436 0.0436 0.0436 0.0436 0.0436 0.0436 0.0436 0.0436 0.0436 0.0436 0.0436 0.0436 0.0436 0.0436 0.0436 0.0436 0.0436 0.0436 0.0436 0.0436 0.0436 0.0436 0.0436 0.0436 0.0436 0.0436 0.0436 0.0436 0.0436 0.0436 0.0436 0.0436 0.0436 0.0436 0.02 0.02 0.02 0.02 0.02 0.01 0.01 0.02 0.02 0.02 0.02 0.02 0.01 0.01 0.02 0.02 0.02 0.02 0.02 0.01 0.01 0.02 0.02 0.02 0.02 0.02 0.01 0.01 0.02 0.02 0.02 0.02 0.02 0.01 0.01 0.02 0.02 0.02 0.02 0.02 0.01 0.01 0.02 0.02 0.02 0.02 0.02 0.01 0.01 0.02 0.02 0.02 0.02 0.02 0.01 0.01 0.02 0.02 0.02 0.02 0.02 0.01 0.01 0.02 0.02 0.02 0.02 0.02 0.01 0.01 0.02 0.02 0.02 0.02 0.02 0.01 0.01 0.02 0.02 0.02 0.02 0.02 0.01 0.01 0.02 0.02 0.02 0.02 0.02 0.01 0.01 0.02 0.02 0.02 0.02 0.02 0.01 0.01 0.02 0.02 0.02 0.02 0.02 0.01 0.01 0.02 0.02 0.02 0.02 0.02 0.01 0.01 0.02 0.02 0.02 0.02 0.02 0.01 0.01 0.02 0.02 0.02 0.02 0.02 0.01 0.01 0.02 0.02 0.02 0.02 0.02 0.01 0.01 0.02 0.02 0.02 0.02 0.02 0.01 0.01 0.02 0.02 0.02 0.02 0.02 0.02 0.02 0.0436 0.0436 0.0436 0.0436 0.0436 0.0436 0.0436 0.0436 0.0436 0.0436 0.0436 0.0436 0.0436 0.0436 0.0436 0.0436 0.0436 0.0436 0.0436 0.0436 0.0436 0.0436 0.0436 0.0436 0.0436 0.0436 0.0436 0.0436 0.0436 0.0436 0.0436 0.0436 0.0436 0.0436 0.0436 0.0436 0.0436 0.0436 0.0436 0.0436 0.0436 0.0436 0.0436 0.0436 0.0436 0.0436 0.02 0.02 0.02 0.02 0.02 0.01 0.01 0.02 0.02 0.02 0.02 0.02 0.01 0.01 0.02 0.02 0.02 0.02 0.02 0.01 0.01 0.02 0.02 0.02 0.02 0.02 0.01 0.01 0.02 0.02 0.02 0.02 0.02 0.01 0.01 0.02 0.02 0.02 0.02 0.02 0.01 0.01 0.02 0.02 0.02 0.02 0.02 0.01 0.01 0.02 0.02 0.02 0.02 0.02 0.01 0.01 0.02 0.02 0.02 0.02 0.02 0.01 0.01 0.02 0.02 0.02 0.02 0.02 0.01 0.01 0.02 0.02 0.02 0.02 0.02 0.01 0.01 0.02 0.02 0.02 0.02 0.02 0.01 0.01 0.02 0.02 0.02 0.02 0.02 0.01 0.01 0.02 0.02 0.02 0.02 0.02 0.01 0.01 0.02 0.02 0.02 0.02 0.02 0.01 0.01 0.02 0.02 0.02 0.02 0.02 0.01 0.02 0.02 0.02 0.02 0.02 0.02 0.0436 0.0436 0.0436 0.0436 0.0436 0.0436 0.0436 0.0436 0.0436 0.0436 0.0436 0.0436 0.0436 0.0436 0.0436 0.0436 0.0436 0.0436 0.0436 0.0436 0.0436 0.0436 0.0436 0.0436 0.0436 0.0436 0.0436 0.0436 0.0436 0.0436 0.0436 0.0436 0.0436 0.0436 0.0436 0.0436 0.0436 0.0436 0.02 0.02 0.02 0.02 0.02 0.01 0.01 0.02 0.02 0.02 0.02 0.02 0.01 0.01 0.02 0.02 0.02 0.02 0.02 0.01 0.01 0.02 0.02 0.02 0.02 0.02 0.01 0.01 0.02 0.02 0.02 0.02 0.02 0.01 0.01 0.02 0.02 0.02 0.02 0.02 0.01 0.01 0.02 0.02 0.02 0.02 0.02 0.01 0.01 0.02 0.02 0.02 0.02 0.02 0.01 0.01 0.02 0.02 0.02 0.02 0.02 0.01 0.01 0.02 0.02 0.02 0.02 0.02 0.01 0.01 0.02 0.02 0.02 0.02 0.02 0.01 0.01 0.02 0.02 0.02 0.02 0.01 0.02 0.02 0.02 0.02 0.02 0.0436 0.0436 0.0436 0.0436 0.0436 0.0436 0.0436 0.0436 0.0436 0.0436 0.0436 0.0436 0.0436 0.0436 0.0436 0.0436 0.0436 0.0436 0.0436 0.0436 0.0436 0.0436 0.0436 0.0436 0.0436 0.0436 0.0436 0.0436 0.0436 0.0436 0.02 0.02 0.02 0.02 0.02 0.01 0.01 0.02 0.02 0.02 0.02 0.02 0.01 0.01 0.02 0.02 0.02 0.02 0.02 0.01 0.01 0.02 0.02 0.02 0.02 0.02 0.01 0.01 0.02 0.02 0.02 0.02 0.02 0.01 0.01 0.02 0.02 0.02 0.02 0.02 0.01 0.01 0.02 0.02 0.02 0.02 0.02 0.01 0.01 0.02 0.02 0.02 0.02 0.01 0.02 0.02 0.02 0.02 0.0436 0.0436 0.0436 0.0436 0.0436 0.0436 0.0436 0.0436 0.0436 0.0436 0.0436 0.0436 0.0436 0.0436 0.0436 0.0436 0.0436 0.0436 0.0436 0.0436 0.02 0.02 0.02 0.02 0.02 0.01 0.01 0.02 0.02 0.02 0.02 0.02 0.01 0.01 0.02 0.02 0.02 0.02 0.02 0.01 0.01 0.02 0.02 0.02 0.02 0.02 0.02 0.02 0.0436 0.0436 0.0436 0.0436 0.0436 0.0436 0.0436 0.0436 0.0436 0.0436 0.0436 0.0436 0.02 0.02 0.02 0.0436 0.0436 0.0436 0.0436 
</DataArray>
<DataArray type="Float32" Name="subType" NumberOfComponents="1" format="ascii" >
1 1 1 1 1 1 1 1 1 1 1 1 1 1 1 1 1 1 1 1 1 1 1 1 1 1 1 1 1 1 1 1 1 1 1 1 1 1 1 1 1 1 1 1 1 1 1 1 1 1 1 1 1 1 1 1 1 1 1 1 2 2 2 2 2 3 3 2 2 2 2 2 3 3 2 2 2 2 2 3 3 2 2 2 2 2 3 3 2 2 2 2 2 3 3 2 2 2 2 2 3 3 2 2 2 2 2 3 2 2 2 2 2 2 2 2 2 2 2 2 2 2 2 2 2 4 4 4 4 4 4 4 4 4 4 4 4 4 4 4 4 4 4 4 4 4 4 4 4 4 4 4 4 4 4 4 4 4 4 4 4 4 4 4 4 4 4 4 4 4 4 4 4 4 4 4 4 4 4 4 4 4 4 2 2 2 2 2 3 3 2 2 2 2 2 3 3 2 2 2 2 2 3 3 2 2 2 2 2 3 3 2 2 2 2 2 3 3 2 2 2 2 2 2 2 2 2 2 2 2 2 2 2 2 2 2 2 4 4 4 4 4 4 4 4 4 4 4 4 4 4 4 4 4 4 4 4 4 4 4 4 4 4 4 4 4 4 4 4 4 4 4 4 4 4 4 4 4 4 4 4 4 4 4 4 4 4 4 4 4 4 4 4 2 2 2 2 2 3 3 2 2 2 2 2 3 3 2 2 2 2 2 3 3 2 2 2 2 2 3 3 2 2 2 2 2 3 3 2 2 2 2 2 2 2 2 2 2 2 2 2 2 2 2 2 2 4 4 4 4 4 4 4 4 4 4 4 4 4 4 4 4 4 4 4 4 4 4 4 4 4 4 4 4 4 4 4 4 4 4 4 4 4 4 4 4 4 4 4 4 4 4 4 4 4 4 4 4 4 4 4 4 2 2 2 2 2 3 3 2 2 2 2 2 3 3 2 2 2 2 2 3 3 2 2 2 2 2 3 3 2 2 2 2 2 3 2 2 2 2 2 2 2 2 2 2 2 2 2 2 2 2 2 4 4 4 4 4 4 4 4 4 4 4 4 4 4 4 4 4 4 4 4 4 4 4 4 4 4 4 4 4 4 4 4 4 4 4 4 4 4 4 4 4 4 4 4 4 4 4 4 4 4 4 4 4 4 4 4 2 2 2 2 2 3 3 2 2 2 2 2 3 3 2 2 2 2 2 3 3 2 2 2 2 2 3 3 2 2 2 2 2 3 2 2 2 2 2 2 2 2 2 2 2 2 2 2 2 4 4 4 4 4 4 4 4 4 4 4 4 4 4 4 4 4 4 4 4 4 4 4 4 4 4 4 4 4 4 4 4 4 4 4 4 4 4 4 4 4 4 4 4 4 4 4 4 4 4 4 4 4 4 4 2 2 2 2 2 3 3 2 2 2 2 2 3 3 2 2 2 2 2 3 3 2 2 2 2 2 3 3 2 2 2 2 2 2 2 2 2 2 2 2 2 2 2 2 2 2 4 4 4 4 4 4 4 4 4 4 4 4 4 4 4 4 4 4 4 4 4 4 4 4 4 4 4 4 4 4 4 4 4 4 4 4 4 4 4 4 4 4 4 4 4 4 4 4 4 4 4 4 4 4 2 2 2 2 2 3 3 2 2 2 2 2 3 3 2 2 2 2 2 3 3 2 2 2 2 2 3 2 2 2 2 2 2 2 2 2 2 2 2 2 2 2 2 2 5 5 5 5 5 5 5 5 5 5 5 5 5 5 5 5 5 5 5 5 5 5 5 5 5 5 5 5 5 5 5 5 5 5 5 5 5 5 5 5 5 5 5 5 5 5 5 5 5 5 5 5 5 5 2 2 2 2 2 3 3 2 2 2 2 2 3 3 2 2 2 2 2 3 3 2 2 2 2 2 3 3 2 2 2 2 2 3 3 2 2 2 2 2 3 3 2 2 2 2 2 3 3 2 2 2 2 2 3 3 2 2 2 2 2 3 3 2 2 2 2 2 3 3 2 2 2 2 2 3 3 2 2 2 2 2 3 3 2 2 2 2 2 3 3 2 2 2 2 2 3 3 2 2 2 2 2 3 3 2 2 2 2 2 3 3 2 2 2 2 2 3 3 2 2 2 2 2 3 3 2 2 2 2 2 3 3 2 2 2 2 2 3 3 2 2 2 2 2 2 2 5 5 5 5 5 5 5 5 5 5 5 5 5 5 5 5 5 5 5 5 5 5 5 5 5 5 5 5 5 5 5 5 5 5 5 5 5 5 5 5 5 5 5 5 5 5 2 2 2 2 2 3 3 2 2 2 2 2 3 3 2 2 2 2 2 3 3 2 2 2 2 2 3 3 2 2 2 2 2 3 3 2 2 2 2 2 3 3 2 2 2 2 2 3 3 2 2 2 2 2 3 3 2 2 2 2 2 3 3 2 2 2 2 2 3 3 2 2 2 2 2 3 3 2 2 2 2 2 3 3 2 2 2 2 2 3 3 2 2 2 2 2 3 3 2 2 2 2 2 3 3 2 2 2 2 2 3 2 2 2 2 2 2 5 5 5 5 5 5 5 5 5 5 5 5 5 5 5 5 5 5 5 5 5 5 5 5 5 5 5 5 5 5 5 5 5 5 5 5 5 5 2 2 2 2 2 3 3 2 2 2 2 2 3 3 2 2 2 2 2 3 3 2 2 2 2 2 3 3 2 2 2 2 2 3 3 2 2 2 2 2 3 3 2 2 2 2 2 3 3 2 2 2 2 2 3 3 2 2 2 2 2 3 3 2 2 2 2 2 3 3 2 2 2 2 2 3 3 2 2 2 2 3 2 2 2 2 2 5 5 5 5 5 5 5 5 5 5 5 5 5 5 5 5 5 5 5 5 5 5 5 5 5 5 5 5 5 5 2 2 2 2 2 3 3 2 2 2 2 2 3 3 2 2 2 2 2 3 3 2 2 2 2 2 3 3 2 2 2 2 2 3 3 2 2 2 2 2 3 3 2 2 2 2 2 3 3 2 2 2 2 3 2 2 2 2 5 5 5 5 5 5 5 5 5 5 5 5 5 5 5 5 5 5 5 5 2 2 2 2 2 3 3 2 2 2 2 2 3 3 2 2 2 2 2 3 3 2 2 2 2 2 2 2 5 5 5 5 5 5 5 5 5 5 5 5 2 2 2 5 5 5 5 
</DataArray>
<DataArray type="Float32" Name="creationTime" NumberOfComponents="1" format="ascii" >
0.3125 0.625 0.8604 1.1729 1.21615 1.52865 1.57191 1.88441 1.92766 2.24016 2.28341 2.59591 2.63917 2.95167 2.99492 3.30742 3.35067 3.66317 3.70642 4.01892 4.06218 4.37468 4.41793 4.73043 4.77368 5.08618 5.12944 5.44194 5.48519 5.79769 5.84094 6.15344 6.1967 6.5092 6.55245 6.86495 6.9082 7.2207 7.26396 7.57646 7.61971 7.93221 7.97546 8.28796 8.33122 8.64372 8.68697 8.99947 9.04272 9.35522 9.39847 9.71097 9.75423 10.0667 10.11 10.4225 10.4657 10.7782 10.8215 11 7.28067 7.54674 7.7596 8.02568 8.10683 8.97237 9.1596 7.63642 7.9025 8.11536 8.38143 8.46258 9.32812 9.51536 7.99217 8.25825 8.47111 8.73718 8.81833 9.68388 9.87111 8.34793 8.614 8.82686 9.09294 9.17409 10.0396 10.2269 8.70368 8.96976 9.18262 9.44869 9.52984 10.3954 10.5826 9.05943 9.32551 9.53837 9.80444 9.88559 10.7511 10.9384 9.41519 9.68126 9.89412 10.1602 10.2413 11 9.77094 10.037 10.2499 10.5159 10.5971 10.1267 10.3928 10.6056 10.8717 10.9529 10.4824 10.7485 10.9614 11 10.8382 11 11 0.8125 1.125 1.3604 1.6729 1.71615 2.02865 2.07191 2.38441 2.42766 2.74016 2.78341 3.09591 3.13917 3.45167 3.49492 3.80742 3.85067 4.16317 4.20642 4.51892 4.56218 4.87468 4.91793 5.23043 5.27368 5.58618 5.62944 5.94194 5.98519 6.29769 6.34094 6.65344 6.6967 7.0092 7.05245 7.36495 7.4082 7.7207 7.76396 8.07646 8.11971 8.43221 8.47546 8.78796 8.83122 9.14372 9.18697 9.49947 9.54272 9.85522 9.89847 10.211 10.2542 10.5667 10.61 10.9225 10.9657 11 7.78067 8.04674 8.2596 8.52568 8.60683 9.47237 9.6596 8.13642 8.4025 8.61536 8.88143 8.96258 9.82812 10.0154 8.49217 8.75825 8.97111 9.23718 9.31833 10.1839 10.3711 8.84793 9.114 9.32686 9.59294 9.67409 10.5396 10.7269 9.20368 9.46976 9.68262 9.94869 10.0298 10.8954 11 9.55943 9.82551 10.0384 10.3044 10.3856 9.91519 10.1813 10.3941 10.6602 10.7413 10.2709 10.537 10.7499 11 10.6267 10.8928 11 10.9824 11 0.9125 1.225 1.4604 1.7729 1.81615 2.12865 2.17191 2.48441 2.52766 2.84016 2.88341 3.19591 3.23917 3.55167 3.59492 3.90742 3.95067 4.26317 4.30642 4.61892 4.66218 4.97468 5.01793 5.33043 5.37368 5.68618 5.72944 6.04194 6.08519 6.39769 6.44094 6.75344 6.7967 7.1092 7.15245 7.46495 7.5082 7.8207 7.86396 8.17646 8.21971 8.53221 8.57546 8.88796 8.93122 9.24372 9.28697 9.59947 9.64272 9.95522 9.99847 10.311 10.3542 10.6667 10.71 11 7.88067 8.14674 8.3596 8.62568 8.70683 9.57237 9.7596 8.23642 8.5025 8.71536 8.98143 9.06258 9.92812 10.1154 8.59217 8.85825 9.07111 9.33718 9.41833 10.2839 10.4711 8.94793 9.214 9.42686 9.69294 9.77409 10.6396 10.8269 9.30368 9.56976 9.78262 10.0487 10.1298 10.9954 11 9.65943 9.92551 10.1384 10.4044 10.4856 10.0152 10.2813 10.4941 10.7602 10.8413 10.3709 10.637 10.8499 11 10.7267 10.9928 11 11 1.0125 1.325 1.5604 1.8729 1.91615 2.22865 2.27191 2.58441 2.62766 2.94016 2.98341 3.29591 3.33917 3.65167 3.69492 4.00742 4.05067 4.36317 4.40642 4.71892 4.76218 5.07468 5.11793 5.43043 5.47368 5.78618 5.82944 6.14194 6.18519 6.49769 6.54094 6.85344 6.8967 7.2092 7.25245 7.56495 7.6082 7.9207 7.96396 8.27646 8.31971 8.63221 8.67546 8.98796 9.03122 9.34372 9.38697 9.69947 9.74272 10.0552 10.0985 10.411 10.4542 10.7667 10.81 11 7.98067 8.24674 8.4596 8.72568 8.80683 9.67237 9.8596 8.33642 8.6025 8.81536 9.08143 9.16258 10.0281 10.2154 8.69217 8.95825 9.17111 9.43718 9.51833 10.3839 10.5711 9.04793 9.314 9.52686 9.79294 9.87409 10.7396 10.9269 9.40368 9.66976 9.88262 10.1487 10.2298 11 9.75943 10.0255 10.2384 10.5044 10.5856 10.1152 10.3813 10.5941 10.8602 10.9413 10.4709 10.737 10.9499 11 10.8267 11 11 1.1125 1.425 1.6604 1.9729 2.01615 2.32865 2.37191 2.68441 2.72766 3.04016 3.08341 3.39591 3.43917 3.75167 3.79492 4.10742 4.15067 4.46317 4.50642 4.81892 4.86218 5.17468 5.21793 5.53043 5.57368 5.88618 5.92944 6.24194 6.28519 6.59769 6.64094 6.95344 6.9967 7.3092 7.35245 7.66495 7.7082 8.0207 8.06396 8.37646 8.41971 8.73221 8.77546 9.08796 9.13122 9.44372 9.48697 9.79947 9.84272 10.1552 10.1985 10.511 10.5542 10.8667 10.91 11 8.08067 8.34674 8.5596 8.82568 8.90683 9.77237 9.9596 8.43642 8.7025 8.91536 9.18143 9.26258 10.1281 10.3154 8.79217 9.05825 9.27111 9.53718 9.61833 10.4839 10.6711 9.14793 9.414 9.62686 9.89294 9.97409 10.8396 11 9.50368 9.76976 9.98262 10.2487 10.3298 11 9.85943 10.1255 10.3384 10.6044 10.6856 10.2152 10.4813 10.6941 10.9602 11 10.5709 10.837 11 10.9267 11 1.2125 1.525 1.7604 2.0729 2.11615 2.42865 2.47191 2.78441 2.82766 3.14016 3.18341 3.49591 3.53917 3.85167 3.89492 4.20742 4.25067 4.56317 4.60642 4.91892 4.96218 5.27468 5.31793 5.63043 5.67368 5.98618 6.02944 6.34194 6.38519 6.69769 6.74094 7.05344 7.0967 7.4092 7.45245 7.76495 7.8082 8.1207 8.16396 8.47646 8.51971 8.83221 8.87546 9.18796 9.23122 9.54372 9.58697 9.89947 9.94272 10.2552 10.2985 10.611 10.6542 10.9667 11 8.18067 8.44674 8.6596 8.92568 9.00683 9.87237 10.0596 8.53642 8.8025 9.01536 9.28143 9.36258 10.2281 10.4154 8.89217 9.15825 9.37111 9.63718 9.71833 10.5839 10.7711 9.24793 9.514 9.72686 9.99294 10.0741 10.9396 11 9.60368 9.86976 10.0826 10.3487 10.4298 9.95943 10.2255 10.4384 10.7044 10.7856 10.3152 10.5813 10.7941 11 10.6709 10.937 11 11 1.3125 1.625 1.8604 2.1729 2.21615 2.52865 2.57191 2.88441 2.92766 3.24016 3.28341 3.59591 3.63917 3.95167 3.99492 4.30742 4.35067 4.66317 4.70642 5.01892 5.06218 5.37468 5.41793 5.73043 5.77368 6.08618 6.12944 6.44194 6.48519 6.79769 6.84094 7.15344 7.1967 7.5092 7.55245 7.86495 7.9082 8.2207 8.26396 8.57646 8.61971 8.93221 8.97546 9.28796 9.33122 9.64372 9.68697 9.99947 10.0427 10.3552 10.3985 10.711 10.7542 11 8.28067 8.54674 8.7596 9.02568 9.10683 9.97237 10.1596 8.63642 8.9025 9.11536 9.38143 9.46258 10.3281 10.5154 8.99217 9.25825 9.47111 9.73718 9.81833 10.6839 10.8711 9.34793 9.614 9.82686 10.0929 10.1741 11 9.70368 9.96976 10.1826 10.4487 10.5298 10.0594 10.3255 10.5384 10.8044 10.8856 10.4152 10.6813 10.8941 11 10.7709 11 11 1.3125 1.625 1.8604 2.1729 2.21615 2.52865 2.57191 2.88441 2.92766 3.24016 3.28341 3.59591 3.63917 3.95167 3.99492 4.30742 4.35067 4.66317 4.70642 5.01892 5.06218 5.37468 5.41793 5.73043 5.77368 6.08618 6.12944 6.44194 6.48519 6.79769 6.84094 7.15344 7.1967 7.5092 7.55245 7.86495 7.9082 8.2207 8.26396 8.57646 8.61971 8.93221 8.97546 9.28796 9.33122 9.64372 9.68697 9.99947 10.0427 10.3552 10.3985 10.711 10.7542 11 3.34172 3.6078 3.82066 4.08673 4.16788 4.20704 4.39427 3.69748 3.96355 4.17641 4.44249 4.52364 4.56279 4.75002 4.05323 4.3193 4.53216 4.79824 4.87939 4.91854 5.10578 4.40898 4.67506 4.88792 5.15399 5.23514 5.2743 5.46153 4.76474 5.03081 5.24367 5.50975 5.59089 5.63005 5.81728 5.12049 5.38656 5.59942 5.8655 5.94665 5.9858 6.17304 5.47624 5.74232 5.95518 6.22125 6.3024 6.34155 6.52879 5.832 6.09807 6.31093 6.57701 6.65815 6.69731 6.88454 6.18775 6.45382 6.66668 6.93276 7.01391 7.05306 7.2403 6.5435 6.80958 7.02244 7.28851 7.36966 7.40881 7.59605 6.89925 7.16533 7.37819 7.64426 7.72541 7.76457 7.9518 7.25501 7.52108 7.73394 8 8.08117 8.12032 8.30755 7.61076 7.87684 8.0897 8.35577 8.43692 8.47607 8.66331 7.96651 8.23259 8.44545 8.71152 8.79267 8.83183 9.01906 8.32227 8.58834 8.8012 9.06728 9.14843 9.18758 9.37481 8.67802 8.9441 9.15696 9.42303 9.50418 9.54333 9.73057 9.03377 9.29985 9.51271 9.77878 9.85993 9.89909 10.0863 9.38953 9.6556 9.86846 10.1345 10.2157 10.2548 10.4421 9.74528 10.0114 10.2242 10.4903 10.5714 10.6106 10.7978 10.101 10.3671 10.58 10.846 10.9272 10.9663 11 10.4568 10.7229 10.9357 11 10.8125 11 11 2.8125 3.125 3.3604 3.6729 3.71615 4.02865 4.07191 4.38441 4.42766 4.74016 4.78341 5.09591 5.13917 5.45167 5.49492 5.80742 5.85067 6.16317 6.20642 6.51892 6.56218 6.87468 6.91793 7.23043 7.27368 7.58618 7.62944 7.94194 7.98519 8.29769 8.34094 8.65344 8.6967 9.0092 9.05245 9.36495 9.4082 9.7207 9.76396 10.0765 10.1197 10.4322 10.4755 10.788 10.8312 11 4.84172 5.1078 5.32066 5.58673 5.66788 5.70704 5.89427 5.19748 5.46355 5.67641 5.94249 6.02364 6.06279 6.25002 5.55323 5.8193 6.03216 6.29824 6.37939 6.41854 6.60578 5.90898 6.17506 6.38792 6.65399 6.73514 6.7743 6.96153 6.26474 6.53081 6.74367 7.00975 7.09089 7.13005 7.31728 6.62049 6.88656 7.09942 7.3655 7.44665 7.4858 7.67304 6.97624 7.24232 7.45518 7.72125 7.8024 7.84155 8.02879 7.332 7.59807 7.81093 8.07701 8.15815 8.19731 8.38454 7.68775 7.95382 8.16668 8.43276 8.51391 8.55306 8.7403 8.0435 8.30958 8.52244 8.78851 8.86966 8.90881 9.09605 8.39925 8.66533 8.87819 9.14426 9.22541 9.26457 9.4518 8.75501 9.02108 9.23394 9.50002 9.58117 9.62032 9.80755 9.11076 9.37684 9.5897 9.85577 9.93692 9.97607 10.1633 9.46651 9.73259 9.94545 10.2115 10.2927 10.3318 10.5191 9.82227 10.0883 10.3012 10.5673 10.6484 10.6876 10.8748 10.178 10.4441 10.657 10.923 11 11 10.5338 10.7998 11 10.8895 11 11 4.3125 4.625 4.8604 5.1729 5.21615 5.52865 5.57191 5.88441 5.92766 6.24016 6.28341 6.59591 6.63917 6.95167 6.99492 7.30742 7.35067 7.66317 7.70642 8.01892 8.06218 8.37468 8.41793 8.73043 8.77368 9.08618 9.12944 9.44194 9.48519 9.79769 9.84094 10.1534 10.1967 10.5092 10.5524 10.8649 10.9082 11 6.34172 6.6078 6.82066 7.08673 7.16788 7.20704 7.39427 6.69748 6.96355 7.17641 7.44249 7.52364 7.56279 7.75002 7.05323 7.3193 7.53216 7.79824 7.87939 7.91854 8.10578 7.40898 7.67506 7.88792 8.15399 8.23514 8.2743 8.46153 7.76474 8.03081 8.24367 8.50975 8.59089 8.63005 8.81728 8.12049 8.38656 8.59942 8.8655 8.94665 8.9858 9.17304 8.47624 8.74232 8.95518 9.22125 9.3024 9.34155 9.52879 8.832 9.09807 9.31093 9.57701 9.65815 9.69731 9.88454 9.18775 9.45382 9.66668 9.93276 10.0139 10.0531 10.2403 9.5435 9.80958 10.0224 10.2885 10.3697 10.4088 10.596 9.89925 10.1653 10.3782 10.6443 10.7254 10.7646 10.9518 10.255 10.5211 10.7339 11 11 10.6108 10.8768 11 10.9665 11 5.8125 6.125 6.3604 6.6729 6.71615 7.02865 7.07191 7.38441 7.42766 7.74016 7.78341 8.09591 8.13917 8.45167 8.49492 8.80742 8.85067 9.16317 9.20642 9.51892 9.56218 9.87468 9.91793 10.2304 10.2737 10.5862 10.6294 10.9419 10.9852 11 7.84172 8.1078 8.32066 8.58673 8.66788 8.70704 8.89427 8.19748 8.46355 8.67641 8.94249 9.02364 9.06279 9.25002 8.55323 8.8193 9.03216 9.29824 9.37939 9.41854 9.60578 8.90898 9.17506 9.38792 9.65399 9.73514 9.7743 9.96153 9.26474 9.53081 9.74367 10.0097 10.0909 10.13 10.3173 9.62049 9.88656 10.0994 10.3655 10.4466 10.4858 10.673 9.97624 10.2423 10.4552 10.7213 10.8024 10.8416 11 10.332 10.5981 10.8109 11 11 10.6877 10.9538 11 11 7.3125 7.625 7.8604 8.1729 8.21615 8.52865 8.57191 8.88441 8.92766 9.24016 9.28341 9.59591 9.63917 9.95167 9.99492 10.3074 10.3507 10.6632 10.7064 11 9.34172 9.6078 9.82066 10.0867 10.1679 10.207 10.3943 9.69748 9.96355 10.1764 10.4425 10.5236 10.5628 10.75 10.0532 10.3193 10.5322 10.7982 10.8794 10.9185 11 10.409 10.6751 10.8879 11 10.7647 11 11 8.8125 9.125 9.3604 9.6729 9.71615 10.0287 10.0719 10.3844 10.4277 10.7402 10.7834 11 10.8417 11 11 10.3125 10.625 10.8604 11 
</DataArray>
<DataArray type="Float32" Name="organType" NumberOfComponents="1" format="ascii" >
2 2 2 2 2 2 2 2 2 2 2 2 2 2 2 2 2 2 2 2 2 2 2 2 2 2 2 2 2 2 2 2 2 2 2 2 2 2 2 2 2 2 2 2 2 2 2 2 2 2 2 2 2 2 2 2 2 2 2 2 2 2 2 2 2 2 2 2 2 2 2 2 2 2 2 2 2 2 2 2 2 2 2 2 2 2 2 2 2 2 2 2 2 2 2 2 2 2 2 2 2 2 2 2 2 2 2 2 2 2 2 2 2 2 2 2 2 2 2 2 2 2 2 2 2 2 2 2 2 2 2 2 2 2 2 2 2 2 2 2 2 2 2 2 2 2 2 2 2 2 2 2 2 2 2 2 2 2 2 2 2 2 2 2 2 2 2 2 2 2 2 2 2 2 2 2 2 2 2 2 2 2 2 2 2 2 2 2 2 2 2 2 2 2 2 2 2 2 2 2 2 2 2 2 2 2 2 2 2 2 2 2 2 2 2 2 2 2 2 2 2 2 2 2 2 2 2 2 2 2 2 2 2 2 2 2 2 2 2 2 2 2 2 2 2 2 2 2 2 2 2 2 2 2 2 2 2 2 2 2 2 2 2 2 2 2 2 2 2 2 2 2 2 2 2 2 2 2 2 2 2 2 2 2 2 2 2 2 2 2 2 2 2 2 2 2 2 2 2 2 2 2 2 2 2 2 2 2 2 2 2 2 2 2 2 2 2 2 2 2 2 2 2 2 2 2 2 2 2 2 2 2 2 2 2 2 2 2 2 2 2 2 2 2 2 2 2 2 2 2 2 2 2 2 2 2 2 2 2 2 2 2 2 2 2 2 2 2 2 2 2 2 2 2 2 2 2 2 2 2 2 2 2 2 2 2 2 2 2 2 2 2 2 2 2 2 2 2 2 2 2 2 2 2 2 2 2 2 2 2 2 2 2 2 2 2 2 2 2 2 2 2 2 2 2 2 2 2 2 2 2 2 2 2 2 2 2 2 2 2 2 2 2 2 2 2 2 2 2 2 2 2 2 2 2 2 2 2 2 2 2 2 2 2 2 2 2 2 2 2 2 2 2 2 2 2 2 2 2 2 2 2 2 2 2 2 2 2 2 2 2 2 2 2 2 2 2 2 2 2 2 2 2 2 2 2 2 2 2 2 2 2 2 2 2 2 2 2 2 2 2 2 2 2 2 2 2 2 2 2 2 2 2 2 2 2 2 2 2 2 2 2 2 2 2 2 2 2 2 2 2 2 2 2 2 2 2 2 2 2 2 2 2 2 2 2 2 2 2 2 2 2 2 2 2 2 2 2 2 2 2 2 2 2 2 2 2 2 2 2 2 2 2 2 2 2 2 2 2 2 2 2 2 2 2 2 2 2 2 2 2 2 2 2 2 2 2 2 2 2 2 2 2 2 2 2 2 2 2 2 2 2 2 2 2 2 2 2 2 2 2 2 2 2 2 2 2 2 2 2 2 2 2 2 2 2 2 2 2 2 2 2 2 2 2 2 2 2 2 2 2 2 2 2 2 2 2 2 2 2 2 2 2 2 2 2 2 2 2 2 2 2 2 2 2 2 2 2 2 2 2 2 2 2 2 2 2 2 2 2 2 2 2 2 2 2 2 2 2 2 2 2 2 2 2 2 2 2 2 2 2 2 2 2 2 2 2 2 2 2 2 2 2 2 2 2 2 2 2 2 2 2 2 2 2 2 2 2 2 2 2 2 2 2 2 2 2 2 2 2 2 2 2 2 2 2 2 2 2 2 2 2 2 2 2 2 2 2 2 2 2 2 2 2 2 2 2 2 2 2 2 2 2 2 2 2 2 2 2 2 2 2 2 2 2 2 2 2 2 2 2 2 2 2 2 2 2 2 2 2 2 2 2 2 2 2 2 2 2 2 2 2 2 2 2 2 2 2 2 2 2 2 2 2 2 2 2 2 2 2 2 2 2 2 2 2 2 2 2 2 2 2 2 2 2 2 2 2 2 2 2 2 2 2 2 2 2 2 2 2 2 2 2 2 2 2 2 2 2 2 2 2 2 2 2 2 2 2 2 2 2 2 2 2 2 2 2 2 2 2 2 2 2 2 2 2 2 2 2 2 2 2 2 2 2 2 2 2 2 2 2 2 2 2 2 2 2 2 2 2 2 2 2 2 2 2 2 2 2 2 2 2 2 2 2 2 2 2 2 2 2 2 2 2 2 2 2 2 2 2 2 2 2 2 2 2 2 2 2 2 2 2 2 2 2 2 2 2 2 2 2 2 2 2 2 2 2 2 2 2 2 2 2 2 2 2 2 2 2 2 2 2 2 2 2 2 2 2 2 2 2 2 2 2 2 2 2 2 2 2 2 2 2 2 2 2 2 2 2 2 2 2 2 2 2 2 2 2 2 2 2 2 2 2 2 2 2 2 2 2 2 2 2 2 2 2 2 2 2 2 2 2 2 2 2 2 2 2 2 2 2 2 2 2 2 2 2 2 2 2 2 2 2 2 2 2 2 2 2 2 2 2 2 2 2 2 2 2 2 2 2 2 2 2 2 2 2 2 2 2 2 2 2 2 2 2 2 2 2 2 2 2 2 2 2 2 2 2 2 2 2 2 2 2 2 2 2 2 2 2 2 2 2 2 2 2 2 2 2 2 2 2 2 2 2 2 2 2 2 2 2 2 2 2 2 2 2 2 2 2 2 2 2 2 2 2 2 2 2 2 2 2 2 2 2 2 2 2 2 2 2 2 2 2 2 2 2 2 2 2 2 2 2 2 2 2 2 2 2 2 2 2 2 2 2 2 2 2 2 2 2 2 2 2 2 2 2 2 2 2 2 2 2 2 2 2 2 2 2 2 2 2 2 2 2 2 2 2 2 2 2 2 2 2 2 2 2 2 2 2 2 2 2 2 2 2 2 2 2 2 2 2 2 2 2 2 2 2 2 2 2 2 2 2 2 2 2 2 2 2 2 2 2 2 2 2 2 2 2 2 2 2 2 2 2 2 2 2 2 2 2 2 2 2 2 2 2 2 2 2 2 2 2 2 2 2 2 2 2 2 2 2 2 2 2 2 2 2 2 2 2 2 2 2 2 2 2 2 2 2 2 2 2 2 2 2 2 2 2 2 2 2 2 2 2 2 2 2 2 2 2 2 2 2 2 2 2 2 2 2 2 
</DataArray>

</CellData>
<Points>
<DataArray type="Float32" Name="Coordinates" NumberOfComponents="3" format="ascii" >