<?xml version="1.0"?><VTKFile type="PolyData" version="0.1" byte_order="LittleEndian">
<PolyData>
<Piece NumberOfLines="804" NumberOfPoints="806">
<CellData Scalars=" CellData">
<DataArray type="Float32" Name="radius" NumberOfComponents="1" format="ascii" >
0.0436 0.0436 0.0436 0.0436 0.0436 0.0436 0.0436 0.0436 0.0436 0.0436 0.0436 0.0436 0.0436 0.0436 0.0436 0.0436 0.0436 0.0436 0.0436 0.0436 0.0436 0.0436 0.0436 0.0436 0.0436 0.0436 0.0436 0.0436 0.0436 0.0436 0.0436 0.0436 0.0436 0.0436 0.0436 0.0436 0.0436 0.0436 0.0436 0.0436 0.0436 0.0436 0.0436 0.0436 0.0436 0.0436 0.0436 0.0436 0.02 0.02 0.02 0.02 0.02 0.01 0.01 0.02 0.02 0.02 0.02 0.02 0.02 0.02 0.02 0.02 0.02 0.02 0.02 0.02 0.02 0.02 0.02 0.02 0.02 0.0436 0.0436 0.0436 0.0436 0.0436 0.0436 0.0436 0.0436 0.0436 0.0436 0.0436 0.0436 0.0436 0.0436 0.0436 0.0436 0.0436 0.0436 0.0436 0.0436 0.0436 0.0436 0.0436 0.0436 0.0436 0.0436 0.0436 0.0436 0.0436 0.0436 0.0436 0.0436 0.0436 0.0436 0.0436 0.0436 0.0436 0.0436 0.0436 0.0436 0.0436 0.0436 0.0436 0.0436 0.0436 0.0436 0.02 0.02 0.02 0.02 0.02 0.02 0.02 0.02 0.02 0.02 0.02 0.02 0.02 0.02 0.02 0.02 0.02 0.0436 0.0436 0.0436 0.0436 0.0436 0.0436 0.0436 0.0436 0.0436 0.0436 0.0436 0.0436 0.0436 0.0436 0.0436 0.0436 0.0436 0.0436 0.0436 0.0436 0.0436 0.0436 0.0436 0.0436 0.0436 0.0436 0.0436 0.0436 0.0436 0.0436 0.0436 0.0436 0.0436 0.0436 0.0436 0.0436 0.0436 0.0436 0.0436 0.0436 0.0436 0.0436 0.0436 0.0436 0.0436 0.0436 0.02 0.02 0.02 0.02 0.02 0.02 0.02 0.02 0.02 0.02 0.02 0.02 0.02 0.02 0.02 0.0436 0.0436 0.0436 0.0436 0.0436 0.0436 0.0436 0.0436 0.0436 0.0436 0.0436 0.0436 0.0436 0.0436 0.0436 0.0436 0.0436 0.0436 0.0436 0.0436 0.0436 0.0436 0.0436 0.0436 0.0436 0.0436 0.0436 0.0436 0.0436 0.0436 0.0436 0.0436 0.0436 0.0436 0.0436 0.0436 0.0436 0.0436 0.0436 0.0436 0.0436 0.0436 0.0436 0.0436 0.0436 0.02 0.02 0.02 0.02 0.02 0.02 0.02 0.02 0.02 0.02 0.02 0.02 0.02 0.0436 0.0436 0.0436 0.0436 0.0436 0.0436 0.0436 0.0436 0.0436 0.0436 0.0436 0.0436 0.0436 0.0436 0.0436 0.0436 0.0436 0.0436 0.0436 0.0436 0.0436 0.0436 0.0436 0.0436 0.0436 0.0436 0.0436 0.0436 0.0436 0.0436 0.0436 0.0436 0.0436 0.0436 0.0436 0.0436 0.0436 0.0436 0.0436 0.0436 0.0436 0.0436 0.0436 0.0436 0.02 0.02 0.02 0.02 0.02 0.02 0.02 0.02 0.02 0.02 0.02 0.02 0.0436 0.0436 0.0436 0.0436 0.0436 0.0436 0.0436 0.0436 0.0436 0.0436 0.0436 0.0436 0.0436 0.0436 0.0436 0.0436 0.0436 0.0436 0.0436 0.0436 0.0436 0.0436 0.0436 0.0436 0.0436 0.0436 0.0436 0.0436 0.0436 0.0436 0.0436 0.0436 0.0436 0.0436 0.0436 0.0436 0.0436 0.0436 0.0436 0.0436 0.0436 0.0436 0.0436 0.0436 0.02 0.02 0.02 0.02 0.02 0.02 0.02 0.02 0.02 0.02 0.02 0.0436 0.0436 0.0436 0.0436 0.0436 0.0436 0.0436 0.0436 0.0436 0.0436 0.0436 0.0436 0.0436 0.0436 0.0436 0.0436 0.0436 0.0436 0.0436 0.0436 0.0436 0.0436 0.0436 0.0436 0.0436 0.0436 0.0436 0.0436 0.0436 0.0436 0.0436 0.0436 0.0436 0.0436 0.0436 0.0436 0.0436 0.0436 0.0436 0.0436 0.0436 0.0436 0.0436 0.0436 0.02 0.02 0.02 0.02 0.02 0.02 0.02 0.02 0.02 0.0436 0.0436 0.0436 0.0436 0.0436 0.0436 0.0436 0.0436 0.0436 0.0436 0.0436 0.0436 0.0436 0.0436 0.0436 0.0436 0.0436 0.0436 0.0436 0.0436 0.0436 0.0436 0.0436 0.0436 0.0436 0.0436 0.0436 0.0436 0.0436 0.0436 0.0436 0.0436 0.0436 0.0436 0.0436 0.0436 0.0436 0.0436 0.0436 0.0436 0.0436 0.0436 0.0436 0.0436 0.02 0.02 0.02 0.02 0.02 0.01 0.01 0.02 0.02 0.02 0.02 0.02 0.01 0.01 0.02 0.02 0.02 0.02 0.02 0.01 0.01 0.02 0.02 0.02 0.02 0.02 0.01 0.01 0.02 0.02 0.02 0.02 0.02 0.01 0.01 0.02 0.02 0.02 0.02 0.02 0.01 0.01 0.02 0.02 0.02 0.02 0.02 0.01 0.01 0.02 0.02 0.02 0.02 0.02 0.01 0.01 0.02 0.02 0.02 0.02 0.02 0.01 0.01 0.02 0.02 0.02 0.02 0.02 0.01 0.01 0.02 0.02 0.02 0.02 0.02 0.01 0.01 0.02 0.02 0.02 0.02 0.02 0.01 0.01 0.02 0.02 0.02 0.02 0.02 0.01 0.01 0.02 0.02 0.02 0.02 0.02 0.01 0.01 0.02 0.02 0.02 0.02 0.01 0.02 0.02 0.02 0.02 0.0436 0.0436 0.0436 0.0436 0.0436 0.0436 0.0436 0.0436 0.0436 0.0436 0.0436 0.0436 0.0436 0.0436 0.0436 0.0436 0.0436 0.0436 0.0436 0.0436 0.0436 0.0436 0.0436 0.0436 0.0436 0.0436 0.0436 0.0436 0.0436 0.0436 0.0436 0.0436 0.0436 0.0436 0.02 0.02 0.02 0.02 0.02 0.01 0.01 0.02 0.02 0.02 0.02 0.02 0.01 0.01 0.02 0.02 0.02 0.02 0.02 0.01 0.01 0.02 0.02 0.02 0.02 0.02 0.01 0.01 0.02 0.02 0.02 0.02 0.02 0.01 0.01 0.02 0.02 0.02 0.02 0.02 0.01 0.01 0.02 0.02 0.02 0.02 0.02 0.01 0.01 0.02 0.02 0.02 0.02 0.02 0.01 0.01 0.02 0.02 0.02 0.02 0.02 0.01 0.01 0.02 0.02 0.02 0.02 0.02 0.01 0.01 0.02 0.02 0.02 0.02 0.02 0.02 0.02 0.0436 0.0436 0.0436 0.0436 0.0436 0.0436 0.0436 0.0436 0.0436 0.0436 0.0436 0.0436 0.0436 0.0436 0.0436 0.0436 0.0436 0.0436 0.0436 0.0436 0.0436 0.0436 0.0436 0.0436 0.0436 0.0436 0.02 0.02 0.02 0.02 0.02 0.01 0.01 0.02 0.02 0.02 0.02 0.02 0.01 0.01 0.02 0.02 0.02 0.02 0.02 0.01 0.01 0.02 0.02 0.02 0.02 0.02 0.01 0.01 0.02 0.02 0.02 0.02 0.02 0.01 0.01 0.02 0.02 0.02 0.02 0.02 0.01 0.01 0.02 0.02 0.02 0.02 0.02 0.02 0.02 0.0436 0.0436 0.0436 0.0436 0.0436 0.0436 0.0436 0.0436 0.0436 0.0436 0.0436 0.0436 0.0436 0.0436 0.0436 0.0436 0.0436 0.0436 0.02 0.02 0.02 0.02 0.02 0.01 0.01 0.02 0.02 0.02 0.02 0.02 0.01 0.02 0.02 0.02 0.02 0.02 0.0436 0.0436 0.0436 0.0436 0.0436 0.0436 0.0436 0.0436 0.0436 0.0436 0.0436 0.0436 
</DataArray>
<DataArray type="Float32" Name="subType" NumberOfComponents="1" format="ascii" >
1 1 1 1 1 1 1 1 1 1 1 1 1 1 1 1 1 1 1 1 1 1 1 1 1 1 1 1 1 1 1 1 1 1 1 1 1 1 1 1 1 1 1 1 1 1 1 1 2 2 2 2 2 3 3 2 2 2 2 2 2 2 2 2 2 2 2 2 2 2 2 2 2 4 4 4 4 4 4 4 4 4 4 4 4 4 4 4 4 4 4 4 4 4 4 4 4 4 4 4 4 4 4 4 4 4 4 4 4 4 4 4 4 4 4 4 4 4 4 2 2 2 2 2 2 2 2 2 2 2 2 2 2 2 2 2 4 4 4 4 4 4 4 4 4 4 4 4 4 4 4 4 4 4 4 4 4 4 4 4 4 4 4 4 4 4 4 4 4 4 4 4 4 4 4 4 4 4 4 4 4 4 2 2 2 2 2 2 2 2 2 2 2 2 2 2 2 4 4 4 4 4 4 4 4 4 4 4 4 4 4 4 4 4 4 4 4 4 4 4 4 4 4 4 4 4 4 4 4 4 4 4 4 4 4 4 4 4 4 4 4 4 2 2 2 2 2 2 2 2 2 2 2 2 2 4 4 4 4 4 4 4 4 4 4 4 4 4 4 4 4 4 4 4 4 4 4 4 4 4 4 4 4 4 4 4 4 4 4 4 4 4 4 4 4 4 4 4 4 2 2 2 2 2 2 2 2 2 2 2 2 4 4 4 4 4 4 4 4 4 4 4 4 4 4 4 4 4 4 4 4 4 4 4 4 4 4 4 4 4 4 4 4 4 4 4 4 4 4 4 4 4 4 4 4 2 2 2 2 2 2 2 2 2 2 2 4 4 4 4 4 4 4 4 4 4 4 4 4 4 4 4 4 4 4 4 4 4 4 4 4 4 4 4 4 4 4 4 4 4 4 4 4 4 4 4 4 4 4 4 2 2 2 2 2 2 2 2 2 5 5 5 5 5 5 5 5 5 5 5 5 5 5 5 5 5 5 5 5 5 5 5 5 5 5 5 5 5 5 5 5 5 5 5 5 5 5 5 5 5 5 5 5 2 2 2 2 2 3 3 2 2 2 2 2 3 3 2 2 2 2 2 3 3 2 2 2 2 2 3 3 2 2 2 2 2 3 3 2 2 2 2 2 3 3 2 2 2 2 2 3 3 2 2 2 2 2 3 3 2 2 2 2 2 3 3 2 2 2 2 2 3 3 2 2 2 2 2 3 3 2 2 2 2 2 3 3 2 2 2 2 2 3 3 2 2 2 2 2 3 3 2 2 2 2 3 2 2 2 2 5 5 5 5 5 5 5 5 5 5 5 5 5 5 5 5 5 5 5 5 5 5 5 5 5 5 5 5 5 5 5 5 5 5 2 2 2 2 2 3 3 2 2 2 2 2 3 3 2 2 2 2 2 3 3 2 2 2 2 2 3 3 2 2 2 2 2 3 3 2 2 2 2 2 3 3 2 2 2 2 2 3 3 2 2 2 2 2 3 3 2 2 2 2 2 3 3 2 2 2 2 2 3 3 2 2 2 2 2 2 2 5 5 5 5 5 5 5 5 5 5 5 5 5 5 5 5 5 5 5 5 5 5 5 5 5 5 2 2 2 2 2 3 3 2 2 2 2 2 3 3 2 2 2 2 2 3 3 2 2 2 2 2 3 3 2 2 2 2 2 3 3 2 2 2 2 2 3 3 2 2 2 2 2 2 2 5 5 5 5 5 5 5 5 5 5 5 5 5 5 5 5 5 5 2 2 2 2 2 3 3 2 2 2 2 2 3 2 2 2 2 2 5 5 5 5 5 5 5 5 5 5 5 5 
</DataArray>
<DataArray type="Float32" Name="creationTime" NumberOfComponents="1" format="ascii" >
0.3125 0.625 0.8604 1.1729 1.21615 1.52865 1.57191 1.88441 1.92766 2.24016 2.28341 2.59591 2.63917 2.95167 2.99492 3.30742 3.35067 3.66317 3.70642 4.01892 4.06218 4.37468 4.41793 4.73043 4.77368 5.08618 5.12944 5.44194 5.48519 5.79769 5.84094 6.15344 6.1967 6.5092 6.55245 6.86495 6.9082 7.2207 7.26396 7.57646 7.61971 7.93221 7.97546 8.28796 8.33122 8.64372 8.68697 8.99947 7.28067 7.54674 7.7596 8.02568 8.10683 8.97237 9 7.63642 7.9025 8.11536 8.38143 8.46258 7.99217 8.25825 8.47111 8.73718 8.81833 8.34793 8.614 8.82686 9 8.70368 8.96976 9 9 0.8125 1.125 1.3604 1.6729 1.71615 2.02865 2.07191 2.38441 2.42766 2.74016 2.78341 3.09591 3.13917 3.45167 3.49492 3.80742 3.85067 4.16317 4.20642 4.51892 4.56218 4.87468 4.91793 5.23043 5.27368 5.58618 5.62944 5.94194 5.98519 6.29769 6.34094 6.65344 6.6967 7.0092 7.05245 7.36495 7.4082 7.7207 7.76396 8.07646 8.11971 8.43221 8.47546 8.78796 8.83122 9 7.78067 8.04674 8.2596 8.52568 8.60683 8.13642 8.4025 8.61536 8.88143 8.96258 8.49217 8.75825 8.97111 9 8.84793 9 9 0.9125 1.225 1.4604 1.7729 1.81615 2.12865 2.17191 2.48441 2.52766 2.84016 2.88341 3.19591 3.23917 3.55167 3.59492 3.90742 3.95067 4.26317 4.30642 4.61892 4.66218 4.97468 5.01793 5.33043 5.37368 5.68618 5.72944 6.04194 6.08519 6.39769 6.44094 6.75344 6.7967 7.1092 7.15245 7.46495 7.5082 7.8207 7.86396 8.17646 8.21971 8.53221 8.57546 8.88796 8.93122 9 7.88067 8.14674 8.3596 8.62568 8.70683 8.23642 8.5025 8.71536 8.98143 9 8.59217 8.85825 9 8.94793 9 1.0125 1.325 1.5604 1.8729 1.91615 2.22865 2.27191 2.58441 2.62766 2.94016 2.98341 3.29591 3.33917 3.65167 3.69492 4.00742 4.05067 4.36317 4.40642 4.71892 4.76218 5.07468 5.11793 5.43043 5.47368 5.78618 5.82944 6.14194 6.18519 6.49769 6.54094 6.85344 6.8967 7.2092 7.25245 7.56495 7.6082 7.9207 7.96396 8.27646 8.31971 8.63221 8.67546 8.98796 9 7.98067 8.24674 8.4596 8.72568 8.80683 8.33642 8.6025 8.81536 9 8.69217 8.95825 9 9 1.1125 1.425 1.6604 1.9729 2.01615 2.32865 2.37191 2.68441 2.72766 3.04016 3.08341 3.39591 3.43917 3.75167 3.79492 4.10742 4.15067 4.46317 4.50642 4.81892 4.86218 5.17468 5.21793 5.53043 5.57368 5.88618 5.92944 6.24194 6.28519 6.59769 6.64094 6.95344 6.9967 7.3092 7.35245 7.66495 7.7082 8.0207 8.06396 8.37646 8.41971 8.73221 8.77546 9 8.08067 8.34674 8.5596 8.82568 8.90683 8.43642 8.7025 8.91536 9 8.79217 9 9 1.2125 1.525 1.7604 2.0729 2.11615 2.42865 2.47191 2.78441 2.82766 3.14016 3.18341 3.49591 3.53917 3.85167 3.89492 4.20742 4.25067 4.56317 4.60642 4.91892 4.96218 5.27468 5.31793 5.63043 5.67368 5.98618 6.02944 6.34194 6.38519 6.69769 6.74094 7.05344 7.0967 7.4092 7.45245 7.76495 7.8082 8.1207 8.16396 8.47646 8.51971 8.83221 8.87546 9 8.18067 8.44674 8.6596 8.92568 9 8.53642 8.8025 9 8.89217 9 9 1.3125 1.625 1.8604 2.1729 2.21615 2.52865 2.57191 2.88441 2.92766 3.24016 3.28341 3.59591 3.63917 3.95167 3.99492 4.30742 4.35067 4.66317 4.70642 5.01892 5.06218 5.37468 5.41793 5.73043 5.77368 6.08618 6.12944 6.44194 6.48519 6.79769 6.84094 7.15344 7.1967 7.5092 7.55245 7.86495 7.9082 8.2207 8.26396 8.57646 8.61971 8.93221 8.97546 9 8.28067 8.54674 8.7596 9 8.63642 8.9025 9 8.99217 9 1.3125 1.625 1.8604 2.1729 2.21615 2.52865 2.57191 2.88441 2.92766 3.24016 3.28341 3.59591 3.63917 3.95167 3.99492 4.30742 4.35067 4.66317 4.70642 5.01892 5.06218 5.37468 5.41793 5.73043 5.77368 6.08618 6.12944 6.44194 6.48519 6.79769 6.84094 7.15344 7.1967 7.5092 7.55245 7.86495 7.9082 8.2207 8.26396 8.57646 8.61971 8.93221 8.97546 9 3.34172 3.6078 3.82066 4.08673 4.16788 4.20704 4.39427 3.69748 3.96355 4.17641 4.44249 4.52364 4.56279 4.75002 4.05323 4.3193 4.53216 4.79824 4.87939 4.91854 5.10578 4.40898 4.67506 4.88792 5.15399 5.23514 5.2743 5.46153 4.76474 5.03081 5.24367 5.50975 5.59089 5.63005 5.81728 5.12049 5.38656 5.59942 5.8655 5.94665 5.9858 6.17304 5.47624 5.74232 5.95518 6.22125 6.3024 6.34155 6.52879 5.832 6.09807 6.31093 6.57701 6.65815 6.69731 6.88454 6.18775 6.45382 6.66668 6.93276 7.01391 7.05306 7.2403 6.5435 6.80958 7.02244 7.28851 7.36966 7.40881 7.59605 6.89925 7.16533 7.37819 7.64426 7.72541 7.76457 7.9518 7.25501 7.52108 7.73394 8 8.08117 8.12032 8.30755 7.61076 7.87684 8.0897 8.35577 8.43692 8.47607 8.66331 7.96651 8.23259 8.44545 8.71152 8.79267 8.83183 9 8.32227 8.58834 8.8012 9 9 8.67802 8.9441 9 9 2.8125 3.125 3.3604 3.6729 3.71615 4.02865 4.07191 4.38441 4.42766 4.74016 4.78341 5.09591 5.13917 5.45167 5.49492 5.80742 5.85067 6.16317 6.20642 6.51892 6.56218 6.87468 6.91793 7.23043 7.27368 7.58618 7.62944 7.94194 7.98519 8.29769 8.34094 8.65344 8.6967 9 4.84172 5.1078 5.32066 5.58673 5.66788 5.70704 5.89427 5.19748 5.46355 5.67641 5.94249 6.02364 6.06279 6.25002 5.55323 5.8193 6.03216 6.29824 6.37939 6.41854 6.60578 5.90898 6.17506 6.38792 6.65399 6.73514 6.7743 6.96153 6.26474 6.53081 6.74367 7.00975 7.09089 7.13005 7.31728 6.62049 6.88656 7.09942 7.3655 7.44665 7.4858 7.67304 6.97624 7.24232 7.45518 7.72125 7.8024 7.84155 8.02879 7.332 7.59807 7.81093 8.07701 8.15815 8.19731 8.38454 7.68775 7.95382 8.16668 8.43276 8.51391 8.55306 8.7403 8.0435 8.30958 8.52244 8.78851 8.86966 8.90881 9 8.39925 8.66533 8.87819 9 8.75501 9 9 4.3125 4.625 4.8604 5.1729 5.21615 5.52865 5.57191 5.88441 5.92766 6.24016 6.28341 6.59591 6.63917 6.95167 6.99492 7.30742 7.35067 7.66317 7.70642 8.01892 8.06218 8.37468 8.41793 8.73043 8.77368 9 6.34172 6.6078 6.82066 7.08673 7.16788 7.20704 7.39427 6.69748 6.96355 7.17641 7.44249 7.52364 7.56279 7.75002 7.05323 7.3193 7.53216 7.79824 7.87939 7.91854 8.10578 7.40898 7.67506 7.88792 8.15399 8.23514 8.2743 8.46153 7.76474 8.03081 8.24367 8.50975 8.59089 8.63005 8.81728 8.12049 8.38656 8.59942 8.8655 8.94665 8.9858 9 8.47624 8.74232 8.95518 9 8.832 9 9 5.8125 6.125 6.3604 6.6729 6.71615 7.02865 7.07191 7.38441 7.42766 7.74016 7.78341 8.09591 8.13917 8.45167 8.49492 8.80742 8.85067 9 7.84172 8.1078 8.32066 8.58673 8.66788 8.70704 8.89427 8.19748 8.46355 8.67641 8.94249 9 9 8.55323 8.8193 9 8.90898 9 7.3125 7.625 7.8604 8.1729 8.21615 8.52865 8.57191 8.88441 8.92766 9 8.8125 9 
</DataArray>
<DataArray type="Float32" Name="organType" NumberOfComponents="1" format="ascii" >
2 2 2 2 2 2 2 2 2 2 2 2 2 2 2 2 2 2 2 2 2 2 2 2 2 2 2 2 2 2 2 2 2 2 2 2 2 2 2 2 2 2 2 2 2 2 2 2 2 2 2 2 2 2 2 2 2 2 2 2 2 2 2 2 2 2 2 2 2 2 2 2 2 2 2 2 2 2 2 2 2 2 2 2 2 2 2 2 2 2 2 2 2 2 2 2 2 2 2 2 2 2 2 2 2 2 2 2 2 2 2 2 2 2 2 2 2 2 2 2 2 2 2 2 2 2 2 2 2 2 2 2 2 2 2 2 2 2 2 2 2 2 2 2 2 2 2 2 2 2 2 2 2 2 2 2 2 2 2 2 2 2 2 2 2 2 2 2 2 2 2 2 2 2 2 2 2 2 2 2 2 2 2 2 2 2 2 2 2 2 2 2 2 2 2 2 2 2 2 2 2 2 2 2 2 2 2 2 2 2 2 2 2 2 2 2 2 2 2 2 2 2 2 2 2 2 2 2 2 2 2 2 2 2 2 2 2 2 2 2 2 2 2 2 2 2 2 2 2 2 2 2 2 2 2 2 2 2 2 2 2 2 2 2 2 2 2 2 2 2 2 2 2 2 2 2 2 2 2 2 2 2 2 2 2 2 2 2 2 2 2 2 2 2 2 2 2 2 2 2 2 2 2 2 2 2 2 2 2 2 2 2 2 2 2 2 2 2 2 2 2 2 2 2 2 2 2 2 2 2 2 2 2 2 2 2 2 2 2 2 2 2 2 2 2 2 2 2 2 2 2 2 2 2 2 2 2 2 2 2 2 2 2 2 2 2 2 2 2 2 2 2 2 2 2 2 2 2 2 2 2 2 2 2 2 2 2 2 2 2 2 2 2 2 2 2 2 2 2 2 2 2 2 2 2 2 2 2 2 2 2 2 2 2 2 2 2 2 2 2 2 2 2 2 2 2 2 2 2 2 2 2 2 2 2 2 2 2 2 2 2 2 2 2 2 2 2 2 2 2 2 2 2 2 2 2 2 2 2 2 2 2 2 2 2 2 2 2 2 2 2 2 2 2 2 2 2 2 2 2 2 2 2 2 2 2 2 2 2 2 2 2 2 2 2 2 2 2 2 2 2 2 2 2 2 2 2 2 2 2 2 2 2 2 2 2 2 2 2 2 2 2 2 2 2 2 2 2 2 2 2 2 2 2 2 2 2 2 2 2 2 2 2 2 2 2 2 2 2 2 2 2 2 2 2 2 2 2 2 2 2 2 2 2 2 2 2 2 2 2 2 2 2 2 2 2 2 2 2 2 2 2 2 2 2 2 2 2 2 2 2 2 2 2 2 2 2 2 2 2 2 2 2 2 2 2 2 2 2 2 2 2 2 2 2 2 2 2 2 2 2 2 2 2 2 2 2 2 2 2 2 2 2 2 2 2 2 2 2 2 2 2 2 2 2 2 2 2 2 2 2 2 2 2 2 2 2 2 2 2 2 2 2 2 2 2 2 2 2 2 2 2 2 2 2 2 2 2 2 2 2 2 2 2 2 2 2 2 2 2 2 2 2 2 2 2 2 2 2 2 2 2 2 2 2 2 2 2 2 2 2 2 2 2 2 2 2 2 2 2 2 2 2 2 2 2 2 2 2 2 2 2 2 2 2 2 2 2 2 2 2 2 2 2 2 2 2 2 2 2 2 2 2 2 2 2 2 2 2 2 2 2 2 2 2 2 2 2 2 2 2 2 2 2 2 2 2 2 2 2 2 2 2 2 2 2 2 2 2 2 2 2 2 2 2 2 2 2 2 2 2 2 2 2 
</DataArray>

</CellData>
<Points>
<DataArray type="Float32" Name="Coordinates" NumberOfComponents="3" format="ascii" >
0 0 -3 -0.0406714 -0.0454438 -3.49627 -0.0764191 -0.106548 -3.99123 -0.00663253 -0.152505 -4.35848 0.0687606 -0.115481 -4.85138 0.0579165 -0.109538 -4.91947 -0.0234898 -0.0741915 -5.41153 -0.027395 -0.0687279 -5.48041 -0.0549266 -0.0306247 -5.97819 -0.0597868 -0.0294939 -6.04722 -0.108107 -0.0183946 -6.54475 -0.107877 -0.010981 -6.61356 -0.133208 0.0467715 -7.10957 -0.136819 0.0662291 -7.17588 -0.0873238 0.107682 -7.6717 -0.0808123 0.111047 -7.74051 -0.000238537 -0.00575988 -8.21995 0.00333993 -0.0334367 -8.28328 0.0577713 -0.271696 -8.71948 0.0662904 -0.304159 -8.78 0.184167 -0.425401 -9.25054 0.189729 -0.431274 -9.31927 0.219931 -0.477061 -9.81625 0.220824 -0.480783 -9.88535 0.225396 -0.505313 -10.3847 0.226444 -0.508241 -10.4539 0.221025 -0.448302 -10.9502 0.219005 -0.451327 -11.0193 0.198077 -0.381745 -11.514 0.19825 -0.365083 -11.5812 0.196785 -0.229108 -12.0624 0.194972 -0.215395 -12.1302 0.263204 -0.172379 -12.6236 0.276727 -0.161954 -12.6907 0.408085 -0.0996583 -13.1691 0.420641 -0.0872603 -13.236 0.498757 0.0247036 -13.717 0.511805 0.0408708 -13.783 0.60344 0.144235 -14.2635 0.615515 0.159735 -14.3299 0.665245 0.291934 -14.8095 0.671882 0.309386 -14.8762 0.721324 0.431721 -15.3585 0.71961 0.440393 -15.4271 0.780084 0.441198 -15.9234 0.790896 0.448853 -15.9913 0.781084 0.500055 -16.4886 0.795459 0.499958 -16.5563 0.937298 0.478967 -17.0353 0.471015 -0.282108 -4.28738 0.952489 -0.386872 -4.20248 1.34092 -0.443159 -4.12532 1.79061 -0.522739 -3.92173 1.93216 -0.55679 -3.87639 1.37567 -0.0139072 -3.87128 1.37455 0.0415022 -3.83744 0.534403 -0.110506 -5.07099 1.0111 -0.109075 -5.22184 1.38342 -0.184159 -5.34731 1.84943 -0.301222 -5.48564 1.99222 -0.34596 -5.515 -0.299464 0.348289 -5.52597 -0.641372 0.712912 -5.53818 -0.870489 1.04073 -5.54464 -1.19251 1.41701 -5.47598 -1.31483 1.50648 -5.49287 0.430239 0.0248252 -6.13043 0.910135 0.140475 -6.20996 1.2963 0.218381 -6.27928 1.60757 0.292835 -6.33781 -0.310223 -0.456309 -6.71719 -0.51284 -0.902037 -6.81855 -0.536956 -0.953342 -6.82259 0.245498 0.000815293 -7.19438 -0.314853 -0.372789 -3.10907 -0.585432 -0.765729 -3.25868 -0.778715 -1.07108 -3.36479 -1.05202 -1.46578 -3.5045 -1.08932 -1.5207 -3.52403 -1.35557 -1.91847 -3.66858 -1.39839 -1.97126 -3.68156 -1.70607 -2.3546 -3.77315 -1.74774 -2.40806 -3.78707 -2.04506 -2.79601 -3.89244 -2.0864 -2.85032 -3.90387 -2.37816 -3.24103 -4.01442 -2.41648 -3.29555 -4.03309 -2.69472 -3.69003 -4.16335 -2.74604 -3.73407 -4.17805 -3.11987 -4.01911 -4.34836 -3.1677 -4.064 -4.3704 -3.52304 -4.37906 -4.52683 -3.57335 -4.42054 -4.55002 -3.943 -4.69958 -4.73844 -3.99547 -4.73827 -4.76165 -4.37225 -5.00783 -4.94974 -4.42357 -5.04133 -4.98187 -4.82602 -5.22522 -5.21472 -4.88154 -5.25095 -5.24705 -5.25348 -5.41573 -5.53776 -5.31134 -5.42804 -5.57368 -5.73129 -5.53049 -5.82495 -5.79697 -5.52925 -5.84673 -6.27805 -5.49402 -5.97836 -6.3447 -5.48814 -5.99603 -6.74675 -5.57907 -6.27903 -6.80107 -5.58969 -6.32057 -7.20215 -5.69937 -6.59825 -7.2588 -5.71552 -6.63457 -7.64494 -5.6757 -6.94971 -7.69434 -5.67266 -6.99808 -8.06129 -5.66071 -7.33749 -8.0954 -5.67723 -7.3954 -8.344 -5.83171 -7.80078 -8.37945 -5.84665 -7.85831 -8.66387 -5.93254 -8.26047 -8.70671 -5.93566 -8.31472 -9.01748 -5.95764 -8.7058 -9.05883 -5.96061 -8.76121 -9.22108 -5.97434 -8.97666 -1.08261 -1.08327 -2.96793 -1.41507 -1.22765 -2.62351 -1.76557 -1.22433 -2.43081 -2.00125 -1.34155 -2.0057 -2.11006 -1.34178 -1.89887 -1.55882 -1.34929 -3.53808 -1.92296 -1.1059 -3.77924 -2.30894 -1.01151 -3.82513 -2.78138 -0.851238 -3.8585 -2.9257 -0.803263 -3.86965 -1.22371 -2.00429 -4.14888 -0.952584 -1.97338 -4.56785 -0.711756 -1.98097 -4.88714 -0.686127 -2.01687 -4.91879 -1.33355 -2.58995 -4.00006 -1.11109 -2.66146 -4.16457 -2.1756 -2.77475 -3.895 0.495055 0.0615247 -3.03369 0.990611 0.127398 -3.04294 1.36333 0.176597 -3.06572 1.8591 0.228883 -3.10419 1.92669 0.238878 -3.11517 2.41553 0.300764 -3.20005 2.48332 0.306391 -3.21281 2.95674 0.461852 -3.1716 3.02342 0.480378 -3.17079 3.49059 0.649791 -3.22606 3.55521 0.673366 -3.23366 4.03556 0.724988 -3.36248 4.10184 0.730573 -3.38159 4.58115 0.817189 -3.49453 4.64576 0.827241 -3.5172 5.12843 0.882505 -3.63542 5.19417 0.893206 -3.65422 5.6748 0.937781 -3.78465 5.74031 0.95217 -3.80169 6.21604 1.07029 -3.90034 6.28028 1.08379 -3.92225 6.73567 1.2478 -4.04762 6.79888 1.26627 -4.0689 7.24984 1.39809 -4.23996 7.31246 1.4181 -4.26158 7.74527 1.5587 -4.46873 7.80371 1.58823 -4.49111 8.2142 1.79018 -4.6929 8.27079 1.81827 -4.72113 8.71365 1.92148 -4.92904 8.77731 1.9287 -4.95521 9.24987 2.01801 -5.09199 9.30478 2.05358 -5.11456 9.72406 2.27525 -5.27287 9.7862 2.30459 -5.28105 10.2273 2.53701 -5.31882 10.289 2.56638 -5.32968 10.6321 2.9069 -5.45744 10.6807 2.95244 -5.47637 11.0453 3.24961 -5.64592 11.0862 3.29235 -5.68185 11.3705 3.61065 -5.9423 11.41 3.6562 -5.97626 11.6615 3.9939 -6.2459 11.6954 4.04225 -6.28204 11.7468 4.12528 -6.33281 1.46635 -0.278881 -3.2444 1.5575 -0.744026 -3.40356 1.68646 -1.10471 -3.51878 1.81093 -1.56198 -3.6782 1.84473 -1.70162 -3.72931 1.85341 0.277198 -3.60828 1.76987 0.366206 -4.09315 1.75179 0.426505 -4.48817 1.50738 0.588747 -4.89306 1.49329 0.594444 -4.92448 2.44929 -0.103588 -2.92862 2.47816 -0.456472 -2.57558 2.52982 -0.589396 -2.3506 3.18105 0.0381566 -3.34282 3.22315 -0.0429082 -3.37791 -0.129386 -0.476484 -3.07888 -0.230394 -0.962911 -3.13532 -0.369032 -1.3125 -3.11466 -0.57994 -1.76454 -3.08042 -0.603574 -1.82946 -3.07634 -0.764626 -2.30129 -3.03842 -0.79336 -2.36328 -3.04943 -0.949795 -2.82912 -3.1417 -0.964796 -2.8953 -3.15531 -1.11973 -3.3631 -3.23993 -1.14332 -3.42417 -3.26234 -1.29856 -3.85887 -3.45454 -1.31401 -3.92006 -3.48294 -1.41325 -4.37803 -3.65733 -1.4258 -4.43891 -3.68777 -1.54745 -4.86282 -3.92334 -1.56964 -4.91984 -3.95568 -1.73533 -5.32328 -4.20019 -1.75075 -5.3772 -4.24073 -1.87799 -5.75999 -4.53617 -1.89652 -5.81019 -4.58006 -1.96255 -6.16813 -4.92287 -1.98076 -6.21745 -4.96787 -2.08827 -6.58504 -5.2893 -2.1002 -6.63047 -5.34013 -2.16831 -6.955 -5.71435 -2.17771 -7.00043 -5.7657 -2.13247 -7.31528 -6.15147 -2.13912 -7.34964 -6.21118 -2.20038 -7.56393 -6.65876 -2.20965 -7.57654 -6.72617 -2.2866 -7.67374 -7.21056 -2.29249 -7.68801 -7.27802 -2.31447 -7.74239 -7.77457 -2.30959 -7.75371 -7.84266 -2.30219 -7.81374 -8.33899 -2.29989 -7.82061 -8.40782 -2.28662 -7.9034 -8.90074 -2.28119 -7.91381 -8.96894 -2.27401 -7.99824 -9.46171 -2.27425 -8.01165 -9.5296 -2.20229 -8.01592 -10.0244 -2.19675 -8.01575 -10.0934 -2.18668 -8.02628 -10.5931 -2.18922 -8.02588 -10.6122 -0.197318 -1.42715 -2.65928 -0.0604303 -1.38688 -2.18008 0.00132683 -1.50674 -1.80349 0.217398 -1.53565 -1.35351 0.191681 -1.62987 -1.2364 -0.76868 -1.87237 -3.54634 -0.861983 -1.90076 -4.03673 -0.889008 -1.91506 -4.43556 -1.05515 -2.04227 -4.71235 -0.821856 -2.35046 -3.54845 -0.792973 -2.37732 -4.04689 -0.780789 -2.36048 -4.12255 -1.05137 -2.79394 -3.54297 -0.495787 0.04567 -3.04593 -0.987858 0.121218 -3.09239 -1.35909 0.175657 -3.12527 -1.84221 0.30392 -3.11346 -1.90748 0.322376 -3.1272 -2.36979 0.476818 -3.23864 -2.43208 0.499648 -3.25834 -2.87961 0.668831 -3.40357 -2.93608 0.698348 -3.43058 -3.35298 0.898451 -3.62072 -3.41054 0.926231 -3.64726 -3.83446 1.10072 -3.84686 -3.89248 1.12274 -3.8775 -4.26903 1.14602 -4.20563 -4.3172 1.13769 -4.25461 -4.6634 1.08842 -4.61199 -4.71161 1.08084 -4.66106 -5.01392 0.996632 -5.05031 -5.05602 0.993693 -5.10516 -5.3825 0.978027 -5.48353 -5.42817 0.977385 -5.53553 -5.74755 0.929191 -5.9172 -5.79276 0.922562 -5.96917 -6.09094 0.877565 -6.368 -6.12392 0.877291 -6.42884 -6.34787 0.75814 -6.85971 -6.3786 0.741665 -6.91949 -6.622 0.626883 -7.3409 -6.65795 0.614354 -7.39869 -6.9137 0.551796 -7.82375 -6.95686 0.535087 -7.87521 -7.25432 0.405092 -8.25549 -7.29336 0.378384 -8.306 -7.55339 0.220219 -8.7027 -7.58966 0.198512 -8.7575 -7.81489 0.102041 -9.19335 -7.84728 0.0890917 -9.25312 -8.08705 0.000423413 -9.68283 -8.11697 -0.0114079 -9.7441 -8.37703 -0.0763065 -10.1662 -8.41183 -0.0877789 -10.2249 -8.63557 -0.189767 -10.6603 -8.66385 -0.195477 -10.7232 -8.81112 -0.232569 -11.0487 -1.34361 0.612263 -2.88209 -1.353 1.05473 -2.64943 -1.43871 1.42685 -2.53033 -1.68192 1.84117 -2.39181 -1.74374 1.97759 -2.36318 -2.06668 -0.143369 -3.03923 -2.27431 -0.582331 -2.92005 -2.40175 -0.957392 -2.8645 -2.45104 -1.1056 -2.83442 -2.62205 0.0381868 -3.28939 -2.81245 -0.295475 -3.35968 -3.0207 0.81964 -3.26499 0.322987 0.344741 -3.16381 0.573021 0.729945 -3.36155 0.725409 1.00149 -3.57344 0.901952 1.36565 -3.86708 0.924605 1.41995 -3.90351 1.09385 1.80575 -4.17279 1.11702 1.85984 -4.20922 1.2522 2.22601 -4.5217 1.2826 2.27245 -4.56304 1.49838 2.60909 -4.86322 1.5252 2.65857 -4.9035 1.676 3.0376 -5.19262 1.69694 3.08768 -5.23555 1.84706 3.44789 -5.54815 1.85692 3.50377 -5.58776 1.96571 3.82259 -5.95725 1.97924 3.86334 -6.01152 2.0725 4.15171 -6.4092 2.09072 4.18283 -6.46826 2.22428 4.41694 -6.8894 2.2506 4.44948 -6.94451 2.47696 4.60963 -7.36058 2.50654 4.62884 -7.42012 2.72534 4.76748 -7.8478 2.75699 4.79368 -7.90349 2.97277 4.92542 -8.33486 3.00155 4.94415 -8.39495 3.2403 5.09932 -8.80594 3.27182 5.12171 -8.86334 3.51796 5.29293 -9.26346 3.55077 5.30995 -9.32197 3.83201 5.30054 -9.73527 3.85229 5.29629 -9.8013 4.02711 5.35481 -10.2661 4.05367 5.36391 -10.3293 4.24463 5.42697 -10.7871 4.27208 5.4314 -10.8505 4.43628 5.4964 -11.3183 4.45131 5.5136 -11.3836 4.56945 5.67508 -11.8418 4.58696 5.69636 -11.9053 4.69835 5.9027 -12.3469 4.70644 5.93359 -12.4083 4.73449 6.01623 -12.5874 0.385207 1.36692 -3.60028 0.157946 1.80979 -3.55311 -0.10002 2.06819 -3.38977 -0.543886 2.22367 -3.5595 -0.656011 2.30321 -3.58417 1.34781 1.50624 -3.65161 1.81385 1.49455 -3.47088 2.15688 1.44624 -3.33767 0.784451 1.71539 -4.5535 0.651191 1.65791 -4.6949 1.28407 2.25278 -4.59086 0.27341 -0.416526 -3.04187 0.54449 -0.834337 -3.08602 0.730116 -1.16183 -3.09833 0.959893 -1.60296 -3.14936 0.990687 -1.66348 -3.16269 1.21563 -2.09879 -3.26225 1.25205 -2.1536 -3.28368 1.51532 -2.5566 -3.41886 1.55262 -2.61114 -3.43945 1.80165 -3.02304 -3.57479 1.83607 -3.08009 -3.5935 2.08323 -3.47846 -3.76731 2.11576 -3.5345 -3.79164 2.28777 -3.97767 -3.94658 2.3041 -4.03961 -3.97278 2.41669 -4.48276 -4.17511 2.42841 -4.54489 -4.20326 2.47033 -5.00422 -4.39629 2.48388 -5.06552 -4.4254 2.60999 -5.52564 -4.57504 2.62573 -5.59045 -4.59349 2.72321 -6.05559 -4.74886 2.75064 -6.11585 -4.76903 2.95984 -6.54289 -4.92353 2.98879 -6.602 -4.94492 3.17423 -7.03923 -5.10126 3.19963 -7.09993 -5.12269 3.39458 -7.53257 -5.28024 3.4129 -7.59528 -5.30306 3.56356 -8.05748 -5.41996 3.58218 -8.12313 -5.43147 3.66621 -8.61125 -5.49994 3.67399 -8.6766 -5.52133 3.7536 -9.14796 -5.66791 3.77608 -9.20749 -5.6951 3.97905 -9.60338 -5.9233 4.00869 -9.6521 -5.96251 4.22314 -10.0045 -6.24509 4.25706 -10.0443 -6.29042 4.50265 -10.3327 -6.61672 4.53394 -10.3713 -6.66489 4.74649 -10.6796 -6.99625 4.77465 -10.7178 -7.04658 4.79439 -10.7392 -7.07291 0.87659 -1.09144 -3.57118 1.01432 -1.013 -4.04539 1.12343 -0.960025 -4.42656 1.2396 -0.876314 -4.85502 1.14017 -1.74475 -2.69253 1.28986 -1.82617 -2.22247 1.35515 -1.86009 -2.05466 1.46405 -1.81664 -3.5862 1.47175 -1.80698 -3.59417 0 0 -1.5 0.426646 -0.000184799 -1.76072 0.797885 0.042859 -2.09287 1.0747 0.0724925 -2.34656 1.44396 0.108363 -2.68175 1.4838 0.105037 -2.73825 1.76296 0.0651659 -3.15113 1.79424 0.0452426 -3.20956 1.98317 -0.0529962 -3.66195 1.99958 -0.0664631 -3.72782 2.16384 -0.0948856 -4.19921 2.19553 -0.09242 -4.26069 2.42806 -0.0693156 -4.70272 2.4596 -0.0643979 -4.76413 2.64351 0.0142263 -5.22238 2.66048 0.0303119 -5.28752 2.83389 0.13269 -5.74517 2.85731 0.143096 -5.80945 3.0544 0.210643 -6.26398 3.08255 0.220338 -6.32645 3.17344 0.221098 -6.81812 3.18439 0.219589 -6.88644 3.17945 0.215312 -7.38639 3.17845 0.211626 -7.45549 3.17038 0.223735 -7.95528 3.15792 0.23041 -8.02303 3.09212 0.285467 -8.51561 3.06098 0.295485 -8.5766 2.92893 0.414395 -9.04396 2.91067 0.43398 -9.10777 2.76311 0.498574 -9.58111 2.73787 0.511554 -9.64423 2.61849 0.627759 -10.1157 2.60259 0.642007 -10.1815 2.42397 0.835045 -10.6067 2.40361 0.858803 -10.6685 2.30417 0.927509 -11.1536 2.29322 0.939061 -11.221 2.18567 0.947276 -11.7092 2.173 0.945388 -11.7772 2.13924 0.918203 -12.2753 2.13191 0.914164 -12.344 2.18476 0.794105 -12.8265 2.1966 0.781402 -12.8935 2.20411 0.78031 -12.932 0.927675 0.512767 -2.53241 0.833024 0.982392 -2.67557 0.662853 1.30218 -2.84521 0.435834 1.74762 -2.852 0.377652 1.8833 -2.8902 0.507765 1.49686 -2.41156 0.357446 1.68177 -2.04168 1.10369 0.186778 -3.05263 0.720916 0.261402 -3.36554 0.397694 0.291287 -3.59928 -0.00807587 0.265577 -3.8903 -0.116379 0.235782 -3.99343 0.517682 -0.125024 -3.84886 0.61652 -0.498801 -4.05891 1.68635 0.416394 -3.52675 1.59381 0.77773 -3.85972 1.5902 1.08755 -4.1127 1.51133 1.50901 -4.36989 1.52895 1.63638 -4.45188 1.09408 1.13718 -4.1502 0.659414 1.20056 -4.17565 2.3047 0.292472 -3.89535 2.59575 0.646323 -4.09555 2.87115 0.934099 -4.13215 3.18351 1.31639 -4.2114 3.29209 1.42344 -4.21367 3.0665 0.848092 -3.68 3.24433 0.775433 -3.28415 2.6755 -0.141965 -4.12966 3.07763 -0.331377 -3.90072 3.42208 -0.411895 -3.71398 3.85056 -0.52004 -3.48007 3.98132 -0.552637 -3.40871 3.44774 0.038751 -3.4989 3.46819 0.435228 -3.30919 2.06363 -0.0706614 -5.06936 1.71512 -0.109219 -5.4258 1.42801 -0.155905 -5.70037 1.07285 -0.141923 -6.05203 0.991965 -0.188308 -6.1727 1.20833 0.263036 -5.53841 1.01147 0.629109 -5.39406 3.09962 -0.208485 -5.27597 3.54459 -0.436016 -5.29113 3.90103 -0.617194 -5.30234 4.31406 -0.892101 -5.36424 4.45207 -0.937337 -5.41071 3.87294 -0.778184 -4.82981 3.88875 -0.925753 -4.41559 2.99306 0.615212 -5.7163 3.07937 1.08105 -5.55646 2.99372 1.4688 -5.5084 2.95242 1.95707 -5.40897 2.94499 2.10911 -5.39978 2.58246 1.45566 -5.79246 2.2221 1.44895 -6.04484 3.01474 0.69522 -6.46748 2.9511 1.17051 -6.60908 2.92009 1.54638 -6.74235 2.90492 2.01808 -6.90746 2.88405 2.1566 -6.96772 2.77819 1.40751 -7.20124 2.65523 1.28537 -7.60567 3.1324 -0.272786 -6.95618 3.09117 -0.763881 -7.04059 3.09444 -1.14797 -6.92895 3.17018 -1.63986 -6.88092 3.17877 -1.78853 -6.91376 3.42228 -1.02328 -6.57261 3.72309 -0.960604 -6.25768 2.74847 0.460121 -7.51351 2.39151 0.803848 -7.58007 2.15728 1.10999 -7.68689 1.84521 1.49749 -7.7365 1.7685 1.62073 -7.78319 2.23659 1.31923 -7.23976 2.23413 1.52561 -6.85117 3.62248 0.113985 -8.16665 4.10277 0.00320502 -8.25063 4.48079 -0.09883 -8.33242 4.96012 -0.186565 -8.44428 5.09706 -0.229487 -8.49594 4.34859 -0.445175 -8.66793 4.23364 -0.751479 -8.96214 2.94809 -0.175456 -8.70098 3.07321 -0.65676 -8.64909 3.11714 -1.0337 -8.77552 3.06278 -1.51198 -8.91076 3.04584 -1.65827 -8.95036 3.61285 -1.03365 -8.84089 4.04059 -1.05043 -8.94268 3.26616 0.0967492 -9.20727 3.55552 -0.103347 -9.56256 3.75427 -0.312373 -9.8397 4.05427 -0.497326 -10.1944 4.1362 -0.565515 -10.3034 4.04888 0.0795924 -9.93753 4.29929 0.375426 -10.0148 2.35655 0.220514 -9.5032 1.95494 0.0139017 -9.28867 1.68628 -0.212619 -9.09759 1.40456 -0.445325 -9.0199 1.63755 -0.187576 -9.11998 2.63817 0.161741 -10.3159 2.6849 -0.322946 -10.4295 2.73725 -0.41201 -10.4104 2.30534 1.25055 -10.5028 0.28441 -0.294065 -1.78747 0.545826 -0.635867 -2.04209 0.731691 -0.897574 -2.23912 0.964654 -1.16678 -2.5902 0.992938 -1.20525 -2.6403 1.22422 -1.45552 -3.00618 1.25604 -1.49001 -3.05704 1.47887 -1.75387 