<?xml version="1.0"?><VTKFile type="PolyData" version="0.1" byte_order="LittleEndian">
<PolyData>
<Piece NumberOfLines="94" NumberOfPoints="96">
<CellData Scalars=" CellData">
<DataArray type="Float32" Name="radius" NumberOfComponents="1" format="ascii" >
0.0436 0.0436 0.0436 0.0436 0.0436 0.0436 0.0436 0.0436 0.0436 0.0436 0.0436 0.0436 0.0436 0.0436 0.0436 0.0436 0.0436 0.0436 0.0436 0.0436 0.0436 0.0436 0.0436 0.0436 0.0436 0.0436 0.0436 0.0436 0.0436 0.0436 0.0436 0.0436 0.0436 0.0436 0.0436 0.0436 0.0436 0.0436 0.0436 0.0436 0.0436 0.0436 0.0436 0.0436 0.0436 0.0436 0.0436 0.0436 0.0436 0.0436 0.0436 0.0436 0.0436 0.0436 0.0436 0.0436 0.0436 0.0436 0.0436 0.0436 0.0436 0.0436 0.0436 0.0436 0.0436 0.0436 0.0436 0.0436 0.0436 0.0436 0.0436 0.0436 0.0436 0.0436 0.0436 0.0436 0.0436 0.0436 0.0436 0.0436 0.0436 0.0436 0.0436 0.0436 0.0436 0.0436 0.0436 0.0436 0.0436 0.0436 0.0436 0.0436 0.0436 0.0436 
</DataArray>
<DataArray type="Float32" Name="subType" NumberOfComponents="1" format="ascii" >
1 1 1 1 1 1 1 1 1 1 1 1 1 1 1 1 4 4 4 4 4 4 4 4 4 4 4 4 4 4 4 4 4 4 4 4 4 4 4 4 4 4 4 4 4 4 4 4 4 4 4 4 4 4 4 4 4 4 4 4 4 4 4 4 4 4 4 4 4 4 4 4 4 4 4 4 4 4 4 4 4 4 5 5 5 5 5 5 5 5 5 5 5 5 
</DataArray>
<DataArray type="Float32" Name="creationTime" NumberOfComponents="1" format="ascii" >
0.3125 0.625 0.8604 1.1729 1.21615 1.52865 1.57191 1.88441 1.92766 2.24016 2.28341 2.59591 2.63917 2.95167 2.99492 3 0.8125 1.125 1.3604 1.6729 1.71615 2.02865 2.07191 2.38441 2.42766 2.74016 2.78341 3 0.9125 1.225 1.4604 1.7729 1.81615 2.12865 2.17191 2.48441 2.52766 2.84016 2.88341 3 1.0125 1.325 1.5604 1.8729 1.91615 2.22865 2.27191 2.58441 2.62766 2.94016 2.98341 3 1.1125 1.425 1.6604 1.9729 2.01615 2.32865 2.37191 2.68441 2.72766 3 1.2125 1.525 1.7604 2.0729 2.11615 2.42865 2.47191 2.78441 2.82766 3 1.3125 1.625 1.8604 2.1729 2.21615 2.52865 2.57191 2.88441 2.92766 3 1.3125 1.625 1.8604 2.1729 2.21615 2.52865 2.57191 2.88441 2.92766 3 2.8125 3 
</DataArray>
<DataArray type="Float32" Name="organType" NumberOfComponents="1" format="ascii" >
2 2 2 2 2 2 2 2 2 2 2 2 2 2 2 2 2 2 2 2 2 2 2 2 2 2 2 2 2 2 2 2 2 2 2 2 2 2 2 2 2 2 2 2 2 2 2 2 2 2 2 2 2 2 2 2 2 2 2 2 2 2 2 2 2 2 2 2 2 2 2 2 2 2 2 2 2 2 2 2 2 2 2 2 2 2 2 2 2 2 2 2 2 2 
</DataArray>

</CellData>
<Points>
<DataArray type="Float32" Name="Coordinates" NumberOfComponents="3" format="ascii" >
0 0 -3 -0.0406714 -0.0454438 -3.49627 -0.0764191 -0.106548 -3.99123 -0.00663253 -0.152505 -4.35848 0.0687606 -0.115481 -4.85138 0.0579165 -0.109538 -4.91947 -0.0234898 -0.0741915 -5.41153 -0.027395 -0.0687279 -5.48041 -0.0549266 -0.0306247 -5.97819 -0.0597868 -0.0294939 -6.04722 -0.108107 -0.0183946 -6.54475 -0.107877 -0.010981 -6.61356 -0.133208 0.0467715 -7.10957 -0.136819 0.0662291 -7.17588 -0.0873238 0.107682 -7.6717 -0.0808123 0.111047 -7.74051 -0.0795022 0.109148 -7.74831 -0.314853 -0.372789 -3.10907 -0.585432 -0.765729 -3.25868 -0.778715 -1.07108 -3.36479 -1.05202 -1.46578 -3.5045 -1.08932 -1.5207 -3.52403 -1.35557 -1.91847 -3.66858 -1.39839 -1.97126 -3.68156 -1.70607 -2.3546 -3.77315 -1.74774 -2.40806 -3.78707 -2.04506 -2.79601 -3.89244 -2.0864 -2.85032 -3.90387 -2.28861 -3.12111 -3.98049 0.495055 0.0615247 -3.03369 0.990611 0.127398 -3.04294 1.36333 0.176597 -3.06572 1.8591 0.228883 -3.10419 1.92669 0.238878 -3.11517 2.41553 0.300764 -3.20005 2.48332 0.306391 -3.21281 2.95674 0.461852 -3.1716 3.02342 0.480378 -3.17079 3.49059 0.649791 -3.22606 3.55521 0.673366 -3.23366 3.73442 0.692625 -3.28172 -0.129386 -0.476484 -3.07888 -0.230394 -0.962911 -3.13532 -0.369032 -1.3125 -3.11466 -0.57994 -1.76454 -3.08042 -0.603574 -1.82946 -3.07634 -0.764626 -2.30129 -3.03842 -0.79336 -2.36328 -3.04943 -0.949795 -2.82912 -3.1417 -0.964796 -2.8953 -3.15531 -1.11973 -3.3631 -3.23993 -1.14332 -3.42417 -3.26234 -1.15156 -3.44725 -3.27255 -0.495787 0.04567 -3.04593 -0.987858 0.121218 -3.09239 -1.35909 0.175657 -3.12527 -1.84221 0.30392 -3.11346 -1.90748 0.322376 -3.1272 -2.36979 0.476818 -3.23864 -2.43208 0.499648 -3.25834 -2.87961 0.668831 -3.40357 -2.93608 0.698348 -3.43058 -3.2994 0.872736 -3.59629 0.322987 0.344741 -3.16381 0.573021 0.729945 -3.36155 0.725409 1.00149 -3.57344 0.901952 1.36565 -3.86708 0.924605 1.41995 -3.90351 1.09385 1.80575 -4.17279 1.11702 1.85984 -4.20922 1.2522 2.22601 -4.5217 1.2826 2.27245 -4.56304 1.4016 2.4581 -4.72859 0.27341 -0.416526 -3.04187 0.54449 -0.834337 -3.08602 0.730116 -1.16183 -3.09833 0.959893 -1.60296 -3.14936 0.990687 -1.66348 -3.16269 1.21563 -2.09879 -3.26225 1.25205 -2.1536 -3.28368 1.51532 -2.5566 -3.41886 1.55262 -2.61114 -3.43945 1.61027 -2.70649 -3.47078 0 0 -1.5 0.426646 -0.000184799 -1.76072 0.797885 0.042859 -2.09287 1.0747 0.0724925 -2.34656 1.44396 0.108363 -2.68175 1.4838 0.105037 -2.73825 1.76296 0.0651659 -3.15113 1.79424 0.0452426 -3.20956 1.98317 -0.0529962 -3.66195 1.99958 -0.0664631 -3.72782 2.0376 -0.0730426 -3.83694 0.28441 -0.294065 -1.78747 0.44126 -0.499146 -1.94024 
</DataArray>
</Points>
<Lines>
<DataArray type="Int32" Name="connectivity" NumberOfComponents="1" format="ascii" >
0 1 1 2 2 3 3 4 4 5 5 6 6 7 7 8 8 9 9 10 10 11 11 12 12 13 13 14 14 15 15 16 0 17 17 18 18 19 19 20 20 21 21 22 22 23 23 24 24 25 25 26 26 27 27 28 0 29 29 30 30 31 31 32 32 33 33 34 34 35 35 36 36 37 37 38 38 39 39 40 0 41 41 42 42 43 43 44 44 45 45 46 46 47 47 48 48 49 49 50 50 51 51 52 0 53 53 54 54 55 55 56 56 57 57 58 58 59 59 60 60 61 61 62 0 63 63 64 64 65 65 66 66 67 67 68 68 69 69 70 70 71 71 72 0 73 73 74 74 75 75 76 76 77 77 78 78 79 79 80 80 81 81 82 83 84 84 85 85 86 86 87 87 88 88 89 89 90 90 91 91 92 92 93 83 94 94 95 
</DataArray>
<DataArray type="Int32" Name="offsets" NumberOfComponents="1" format="ascii" >
2 4 6 8 10 12 14 16 18 20 22 24 26 28 30 32 34 36 38 40 42 44 46 48 50 52 54 56 58 60 62 64 66 68 70 72 74 76 78 80 82 84 86 88 90 92 94 96 98 100 102 104 106 108 110 112 114 116 118 120 122 124 126 128 130 132 134 136 138 140 142 144 146 148 150 152 154 156 158 160 162 164 166 168 170 172 174 176 178 180 182 184 186 188 
</DataArray>

</Lines>
</Piece>
</PolyData>
</VTKFile>
