<?xml version="1.0"?><VTKFile type="PolyData" version="0.1" byte_order="LittleEndian">
<PolyData>
<Piece NumberOfLines="577" NumberOfPoints="579">
<CellData Scalars=" CellData">
<DataArray type="Float32" Name="radius" NumberOfComponents="1" format="ascii" >
0.0436 0.0436 0.0436 0.0436 0.0436 0.0436 0.0436 0.0436 0.0436 0.0436 0.0436 0.0436 0.0436 0.0436 0.0436 0.0436 0.0436 0.0436 0.0436 0.0436 0.0436 0.0436 0.0436 0.0436 0.0436 0.0436 0.0436 0.0436 0.0436 0.0436 0.0436 0.0436 0.0436 0.0436 0.0436 0.0436 0.0436 0.0436 0.0436 0.0436 0.0436 0.0436 0.0436 0.0436 0.02 0.02 0.02 0.02 0.02 0.02 0.02 0.02 0.02 0.0436 0.0436 0.0436 0.0436 0.0436 0.0436 0.0436 0.0436 0.0436 0.0436 0.0436 0.0436 0.0436 0.0436 0.0436 0.0436 0.0436 0.0436 0.0436 0.0436 0.0436 0.0436 0.0436 0.0436 0.0436 0.0436 0.0436 0.0436 0.0436 0.0436 0.0436 0.0436 0.0436 0.0436 0.0436 0.0436 0.0436 0.0436 0.0436 0.0436 0.02 0.02 0.02 0.0436 0.0436 0.0436 0.0436 0.0436 0.0436 0.0436 0.0436 0.0436 0.0436 0.0436 0.0436 0.0436 0.0436 0.0436 0.0436 0.0436 0.0436 0.0436 0.0436 0.0436 0.0436 0.0436 0.0436 0.0436 0.0436 0.0436 0.0436 0.0436 0.0436 0.0436 0.0436 0.0436 0.0436 0.0436 0.0436 0.0436 0.0436 0.0436 0.0436 0.02 0.02 0.02 0.0436 0.0436 0.0436 0.0436 0.0436 0.0436 0.0436 0.0436 0.0436 0.0436 0.0436 0.0436 0.0436 0.0436 0.0436 0.0436 0.0436 0.0436 0.0436 0.0436 0.0436 0.0436 0.0436 0.0436 0.0436 0.0436 0.0436 0.0436 0.0436 0.0436 0.0436 0.0436 0.0436 0.0436 0.0436 0.0436 0.0436 0.0436 0.0436 0.0436 0.02 0.02 0.0436 0.0436 0.0436 0.0436 0.0436 0.0436 0.0436 0.0436 0.0436 0.0436 0.0436 0.0436 0.0436 0.0436 0.0436 0.0436 0.0436 0.0436 0.0436 0.0436 0.0436 0.0436 0.0436 0.0436 0.0436 0.0436 0.0436 0.0436 0.0436 0.0436 0.0436 0.0436 0.0436 0.0436 0.0436 0.0436 0.0436 0.0436 0.02 0.0436 0.0436 0.0436 0.0436 0.0436 0.0436 0.0436 0.0436 0.0436 0.0436 0.0436 0.0436 0.0436 0.0436 0.0436 0.0436 0.0436 0.0436 0.0436 0.0436 0.0436 0.0436 0.0436 0.0436 0.0436 0.0436 0.0436 0.0436 0.0436 0.0436 0.0436 0.0436 0.0436 0.0436 0.0436 0.0436 0.0436 0.0436 0.02 0.0436 0.0436 0.0436 0.0436 0.0436 0.0436 0.0436 0.0436 0.0436 0.0436 0.0436 0.0436 0.0436 0.0436 0.0436 0.0436 0.0436 0.0436 0.0436 0.0436 0.0436 0.0436 0.0436 0.0436 0.0436 0.0436 0.0436 0.0436 0.0436 0.0436 0.0436 0.0436 0.0436 0.0436 0.0436 0.0436 0.0436 0.0436 0.0436 0.0436 0.0436 0.0436 0.0436 0.0436 0.0436 0.0436 0.0436 0.0436 0.0436 0.0436 0.0436 0.0436 0.0436 0.0436 0.0436 0.0436 0.0436 0.0436 0.0436 0.0436 0.0436 0.0436 0.0436 0.0436 0.0436 0.0436 0.0436 0.0436 0.0436 0.0436 0.0436 0.0436 0.0436 0.0436 0.0436 0.0436 0.02 0.02 0.02 0.02 0.02 0.01 0.01 0.02 0.02 0.02 0.02 0.02 0.01 0.01 0.02 0.02 0.02 0.02 0.02 0.01 0.01 0.02 0.02 0.02 0.02 0.02 0.01 0.01 0.02 0.02 0.02 0.02 0.02 0.01 0.01 0.02 0.02 0.02 0.02 0.02 0.01 0.01 0.02 0.02 0.02 0.02 0.02 0.01 0.01 0.02 0.02 0.02 0.02 0.02 0.01 0.01 0.02 0.02 0.02 0.02 0.02 0.01 0.01 0.02 0.02 0.02 0.02 0.02 0.01 0.01 0.02 0.02 0.02 0.02 0.02 0.01 0.01 0.02 0.02 0.02 0.02 0.01 0.02 0.02 0.02 0.02 0.02 0.0436 0.0436 0.0436 0.0436 0.0436 0.0436 0.0436 0.0436 0.0436 0.0436 0.0436 0.0436 0.0436 0.0436 0.0436 0.0436 0.0436 0.0436 0.0436 0.0436 0.0436 0.0436 0.0436 0.0436 0.0436 0.0436 0.0436 0.0436 0.0436 0.0436 0.02 0.02 0.02 0.02 0.02 0.01 0.01 0.02 0.02 0.02 0.02 0.02 0.01 0.01 0.02 0.02 0.02 0.02 0.02 0.01 0.01 0.02 0.02 0.02 0.02 0.02 0.01 0.01 0.02 0.02 0.02 0.02 0.02 0.01 0.01 0.02 0.02 0.02 0.02 0.02 0.01 0.01 0.02 0.02 0.02 0.02 0.02 0.01 0.01 0.02 0.02 0.02 0.02 0.01 0.02 0.02 0.02 0.02 0.0436 0.0436 0.0436 0.0436 0.0436 0.0436 0.0436 0.0436 0.0436 0.0436 0.0436 0.0436 0.0436 0.0436 0.0436 0.0436 0.0436 0.0436 0.0436 0.0436 0.02 0.02 0.02 0.02 0.02 0.01 0.01 0.02 0.02 0.02 0.02 0.02 0.01 0.01 0.02 0.02 0.02 0.02 0.02 0.01 0.01 0.02 0.02 0.02 0.02 0.02 0.02 0.02 0.0436 0.0436 0.0436 0.0436 0.0436 0.0436 0.0436 0.0436 0.0436 0.0436 0.0436 0.0436 0.02 0.02 0.02 0.0436 0.0436 0.0436 0.0436 
</DataArray>
<DataArray type="Float32" Name="subType" NumberOfComponents="1" format="ascii" >
1 1 1 1 1 1 1 1 1 1 1 1 1 1 1 1 1 1 1 1 1 1 1 1 1 1 1 1 1 1 1 1 1 1 1 1 1 1 1 1 1 1 1 1 2 2 2 2 2 2 2 2 2 4 4 4 4 4 4 4 4 4 4 4 4 4 4 4 4 4 4 4 4 4 4 4 4 4 4 4 4 4 4 4 4 4 4 4 4 4 4 4 4 2 2 2 4 4 4 4 4 4 4 4 4 4 4 4 4 4 4 4 4 4 4 4 4 4 4 4 4 4 4 4 4 4 4 4 4 4 4 4 4 4 4 4 2 2 2 4 4 4 4 4 4 4 4 4 4 4 4 4 4 4 4 4 4 4 4 4 4 4 4 4 4 4 4 4 4 4 4 4 4 4 4 4 4 4 4 2 2 4 4 4 4 4 4 4 4 4 4 4 4 4 4 4 4 4 4 4 4 4 4 4 4 4 4 4 4 4 4 4 4 4 4 4 4 4 4 2 4 4 4 4 4 4 4 4 4 4 4 4 4 4 4 4 4 4 4 4 4 4 4 4 4 4 4 4 4 4 4 4 4 4 4 4 4 4 2 4 4 4 4 4 4 4 4 4 4 4 4 4 4 4 4 4 4 4 4 4 4 4 4 4 4 4 4 4 4 4 4 4 4 4 4 4 4 5 5 5 5 5 5 5 5 5 5 5 5 5 5 5 5 5 5 5 5 5 5 5 5 5 5 5 5 5 5 5 5 5 5 5 5 5 5 2 2 2 2 2 3 3 2 2 2 2 2 3 3 2 2 2 2 2 3 3 2 2 2 2 2 3 3 2 2 2 2 2 3 3 2 2 2 2 2 3 3 2 2 2 2 2 3 3 2 2 2 2 2 3 3 2 2 2 2 2 3 3 2 2 2 2 2 3 3 2 2 2 2 2 3 3 2 2 2 2 3 2 2 2 2 2 5 5 5 5 5 5 5 5 5 5 5 5 5 5 5 5 5 5 5 5 5 5 5 5 5 5 5 5 5 5 2 2 2 2 2 3 3 2 2 2 2 2 3 3 2 2 2 2 2 3 3 2 2 2 2 2 3 3 2 2 2 2 2 3 3 2 2 2 2 2 3 3 2 2 2 2 2 3 3 2 2 2 2 3 2 2 2 2 5 5 5 5 5 5 5 5 5 5 5 5 5 5 5 5 5 5 5 5 2 2 2 2 2 3 3 2 2 2 2 2 3 3 2 2 2 2 2 3 3 2 2 2 2 2 2 2 5 5 5 5 5 5 5 5 5 5 5 5 2 2 2 5 5 5 5 
</DataArray>
<DataArray type="Float32" Name="creationTime" NumberOfComponents="1" format="ascii" >
0.3125 0.625 0.8604 1.1729 1.21615 1.52865 1.57191 1.88441 1.92766 2.24016 2.28341 2.59591 2.63917 2.95167 2.99492 3.30742 3.35067 3.66317 3.70642 4.01892 4.06218 4.37468 4.41793 4.73043 4.77368 5.08618 5.12944 5.44194 5.48519 5.79769 5.84094 6.15344 6.1967 6.5092 6.55245 6.86495 6.9082 7.2207 7.26396 7.57646 7.61971 7.93221 7.97546 8 7.28067 7.54674 7.7596 8 7.63642 7.9025 8 7.99217 8 0.8125 1.125 1.3604 1.6729 1.71615 2.02865 2.07191 2.38441 2.42766 2.74016 2.78341 3.09591 3.13917 3.45167 3.49492 3.80742 3.85067 4.16317 4.20642 4.51892 4.56218 4.87468 4.91793 5.23043 5.27368 5.58618 5.62944 5.94194 5.98519 6.29769 6.34094 6.65344 6.6967 7.0092 7.05245 7.36495 7.4082 7.7207 7.76396 8 7.78067 8 8 0.9125 1.225 1.4604 1.7729 1.81615 2.12865 2.17191 2.48441 2.52766 2.84016 2.88341 3.19591 3.23917 3.55167 3.59492 3.90742 3.95067 4.26317 4.30642 4.61892 4.66218 4.97468 5.01793 5.33043 5.37368 5.68618 5.72944 6.04194 6.08519 6.39769 6.44094 6.75344 6.7967 7.1092 7.15245 7.46495 7.5082 7.8207 7.86396 8 7.88067 8 8 1.0125 1.325 1.5604 1.8729 1.91615 2.22865 2.27191 2.58441 2.62766 2.94016 2.98341 3.29591 3.33917 3.65167 3.69492 4.00742 4.05067 4.36317 4.40642 4.71892 4.76218 5.07468 5.11793 5.43043 5.47368 5.78618 5.82944 6.14194 6.18519 6.49769 6.54094 6.85344 6.8967 7.2092 7.25245 7.56495 7.6082 7.9207 7.96396 8 7.98067 8 1.1125 1.425 1.6604 1.9729 2.01615 2.32865 2.37191 2.68441 2.72766 3.04016 3.08341 3.39591 3.43917 3.75167 3.79492 4.10742 4.15067 4.46317 4.50642 4.81892 4.86218 5.17468 5.21793 5.53043 5.57368 5.88618 5.92944 6.24194 6.28519 6.59769 6.64094 6.95344 6.9967 7.3092 7.35245 7.66495 7.7082 8 8 1.2125 1.525 1.7604 2.0729 2.11615 2.42865 2.47191 2.78441 2.82766 3.14016 3.18341 3.49591 3.53917 3.85167 3.89492 4.20742 4.25067 4.56317 4.60642 4.91892 4.96218 5.27468 5.31793 5.63043 5.67368 5.98618 6.02944 6.34194 6.38519 6.69769 6.74094 7.05344 7.0967 7.4092 7.45245 7.76495 7.8082 8 8 1.3125 1.625 1.8604 2.1729 2.21615 2.52865 2.57191 2.88441 2.92766 3.24016 3.28341 3.59591 3.63917 3.95167 3.99492 4.30742 4.35067 4.66317 4.70642 5.01892 5.06218 5.37468 5.41793 5.73043 5.77368 6.08618 6.12944 6.44194 6.48519 6.79769 6.84094 7.15344 7.1967 7.5092 7.55245 7.86495 7.9082 8 1.3125 1.625 1.8604 2.1729 2.21615 2.52865 2.57191 2.88441 2.92766 3.24016 3.28341 3.59591 3.63917 3.95167 3.99492 4.30742 4.35067 4.66317 4.70642 5.01892 5.06218 5.37468 5.41793 5.73043 5.77368 6.08618 6.12944 6.44194 6.48519 6.79769 6.84094 7.15344 7.1967 7.5092 7.55245 7.86495 7.9082 8 3.34172 3.6078 3.82066 4.08673 4.16788 4.20704 4.39427 3.69748 3.96355 4.17641 4.44249 4.52364 4.56279 4.75002 4.05323 4.3193 4.53216 4.79824 4.87939 4.91854 5.10578 4.40898 4.67506 4.88792 5.15399 5.23514 5.2743 5.46153 4.76474 5.03081 5.24367 5.50975 5.59089 5.63005 5.81728 5.12049 5.38656 5.59942 5.8655 5.94665 5.9858 6.17304 5.47624 5.74232 5.95518 6.22125 6.3024 6.34155 6.52879 5.832 6.09807 6.31093 6.57701 6.65815 6.69731 6.88454 6.18775 6.45382 6.66668 6.93276 7.01391 7.05306 7.2403 6.5435 6.80958 7.02244 7.28851 7.36966 7.40881 7.59605 6.89925 7.16533 7.37819 7.64426 7.72541 7.76457 7.9518 7.25501 7.52108 7.73394 8 8 7.61076 7.87684 8 7.96651 8 2.8125 3.125 3.3604 3.6729 3.71615 4.02865 4.07191 4.38441 4.42766 4.74016 4.78341 5.09591 5.13917 5.45167 5.49492 5.80742 5.85067 6.16317 6.20642 6.51892 6.56218 6.87468 6.91793 7.23043 7.27368 7.58618 7.62944 7.94194 7.98519 8 4.84172 5.1078 5.32066 5.58673 5.66788 5.70704 5.89427 5.19748 5.46355 5.67641 5.94249 6.02364 6.06279 6.25002 5.55323 5.8193 6.03216 6.29824 6.37939 6.41854 6.60578 5.90898 6.17506 6.38792 6.65399 6.73514 6.7743 6.96153 6.26474 6.53081 6.74367 7.00975 7.09089 7.13005 7.31728 6.62049 6.88656 7.09942 7.3655 7.44665 7.4858 7.67304 6.97624 7.24232 7.45518 7.72125 7.8024 7.84155 8 7.332 7.59807 7.81093 8 8 7.68775 7.95382 8 8 4.3125 4.625 4.8604 5.1729 5.21615 5.52865 5.57191 5.88441 5.92766 6.24016 6.28341 6.59591 6.63917 6.95167 6.99492 7.30742 7.35067 7.66317 7.70642 8 6.34172 6.6078 6.82066 7.08673 7.16788 7.20704 7.39427 6.69748 6.96355 7.17641 7.44249 7.52364 7.56279 7.75002 7.05323 7.3193 7.53216 7.79824 7.87939 7.91854 8 7.40898 7.67506 7.88792 8 7.76474 8 8 5.8125 6.125 6.3604 6.6729 6.71615 7.02865 7.07191 7.38441 7.42766 7.74016 7.78341 8 7.84172 8 8 7.3125 7.625 7.8604 8 
</DataArray>
<DataArray type="Float32" Name="organType" NumberOfComponents="1" format="ascii" >
2 2 2 2 2 2 2 2 2 2 2 2 2 2 2 2 2 2 2 2 2 2 2 2 2 2 2 2 2 2 2 2 2 2 2 2 2 2 2 2 2 2 2 2 2 2 2 2 2 2 2 2 2 2 2 2 2 2 2 2 2 2 2 2 2 2 2 2 2 2 2 2 2 2 2 2 2 2 2 2 2 2 2 2 2 2 2 2 2 2 2 2 2 2 2 2 2 2 2 2 2 2 2 2 2 2 2 2 2 2 2 2 2 2 2 2 2 2 2 2 2 2 2 2 2 2 2 2 2 2 2 2 2 2 2 2 2 2 2 2 2 2 2 2 2 2 2 2 2 2 2 2 2 2 2 2 2 2 2 2 2 2 2 2 2 2 2 2 2 2 2 2 2 2 2 2 2 2 2 2 2 2 2 2 2 2 2 2 2 2 2 2 2 2 2 2 2 2 2 2 2 2 2 2 2 2 2 2 2 2 2 2 2 2 2 2 2 2 2 2 2 2 2 2 2 2 2 2 2 2 2 2 2 2 2 2 2 2 2 2 2 2 2 2 2 2 2 2 2 2 2 2 2 2 2 2 2 2 2 2 2 2 2 2 2 2 2 2 2 2 2 2 2 2 2 2 2 2 2 2 2 2 2 2 2 2 2 2 2 2 2 2 2 2 2 2 2 2 2 2 2 2 2 2 2 2 2 2 2 2 2 2 2 2 2 2 2 2 2 2 2 2 2 2 2 2 2 2 2 2 2 2 2 2 2 2 2 2 2 2 2 2 2 2 2 2 2 2 2 2 2 2 2 2 2 2 2 2 2 2 2 2 2 2 2 2 2 2 2 2 2 2 2 2 2 2 2 2 2 2 2 2 2 2 2 2 2 2 2 2 2 2 2 2 2 2 2 2 2 2 2 2 2 2 2 2 2 2 2 2 2 2 2 2 2 2 2 2 2 2 2 2 2 2 2 2 2 2 2 2 2 2 2 2 2 2 2 2 2 2 2 2 2 2 2 2 2 2 2 2 2 2 2 2 2 2 2 2 2 2 2 2 2 2 2 2 2 2 2 2 2 2 2 2 2 2 2 2 2 2 2 2 2 2 2 2 2 2 2 2 2 2 2 2 2 2 2 2 2 2 2 2 2 2 2 2 2 2 2 2 2 2 2 2 2 2 2 2 2 2 2 2 2 2 2 2 2 2 2 2 2 2 2 2 2 2 2 2 2 2 2 2 2 2 2 2 2 2 2 2 2 2 2 2 2 2 2 2 2 2 2 2 2 2 2 2 2 2 2 2 2 2 2 2 2 2 2 
</DataArray>

</CellData>
<Points>
<DataArray type="Float32" Name="Coordinates" NumberOfComponents="3" format="ascii" >
0 0 -3 -0.0406714 -0.0454438 -3.49627 -0.0764191 -0.106548 -3.99123 -0.00663253 -0.152505 -4.35848 0.0687606 -0.115481 -4.85138 0.0579165 -0.109538 -4.91947 -0.0234898 -0.0741915 -5.41153 -0.027395 -0.0687279 -5.48041 -0.0549266 -0.0306247 -5.97819 -0.0597868 -0.0294939 -6.04722 -0.108107 -0.0183946 -6.54475 -0.107877 -0.010981 -6.61356 -0.133208 0.0467715 -7.10957 -0.136819 0.0662291 -7.17588 -0.0873238 0.107682 -7.6717 -0.0808123 0.111047 -7.74051 -0.000238537 -0.00575988 -8.21995 0.00333993 -0.0334367 -8.28328 0.0577713 -0.271696 -8.71948 0.0662904 -0.304159 -8.78 0.184167 -0.425401 -9.25054 0.189729 -0.431274 -9.31927 0.219931 -0.477061 -9.81625 0.220824 -0.480783 -9.88535 0.225396 -0.505313 -10.3847 0.226444 -0.508241 -10.4539 0.221025 -0.448302 -10.9502 0.219005 -0.451327 -11.0193 0.198077 -0.381745 -11.514 0.19825 -0.365083 -11.5812 0.196785 -0.229108 -12.0624 0.194972 -0.215395 -12.1302 0.263204 -0.172379 -12.6236 0.276727 -0.161954 -12.6907 0.408085 -0.0996583 -13.1691 0.420641 -0.0872603 -13.236 0.498757 0.0247036 -13.717 0.511805 0.0408708 -13.783 0.60344 0.144235 -14.2635 0.615515 0.159735 -14.3299 0.665245 0.291934 -14.8095 0.671882 0.309386 -14.8762 0.721324 0.431721 -15.3585 0.71961 0.440393 -15.4271 0.724358 0.440456 -15.4661 0.471015 -0.282108 -4.28738 0.952489 -0.386872 -4.20248 1.34092 -0.443159 -4.12532 1.74721 -0.515059 -3.94138 0.534403 -0.110506 -5.07099 1.0111 -0.109075 -5.22184 1.18165 -0.143469 -5.27931 -0.299464 0.348289 -5.52597 -0.309521 0.359013 -5.52633 -0.314853 -0.372789 -3.10907 -0.585432 -0.765729 -3.25868 -0.778715 -1.07108 -3.36479 -1.05202 -1.46578 -3.5045 -1.08932 -1.5207 -3.52403 -1.35557 -1.91847 -3.66858 -1.39839 -1.97126 -3.68156 -1.70607 -2.3546 -3.77315 -1.74774 -2.40806 -3.78707 -2.04506 -2.79601 -3.89244 -2.0864 -2.85032 -3.90387 -2.37816 -3.24103 -4.01442 -2.41648 -3.29555 -4.03309 -2.69472 -3.69003 -4.16335 -2.74604 -3.73407 -4.17805 -3.11987 -4.01911 -4.34836 -3.1677 -4.064 -4.3704 -3.52304 -4.37906 -4.52683 -3.57335 -4.42054 -4.55002 -3.943 -4.69958 -4.73844 -3.99547 -4.73827 -4.76165 -4.37225 -5.00783 -4.94974 -4.42357 -5.04133 -4.98187 -4.82602 -5.22522 -5.21472 -4.88154 -5.25095 -5.24705 -5.25348 -5.41573 -5.53776 -5.31134 -5.42804 -5.57368 -5.73129 -5.53049 -5.82495 -5.79697 -5.52925 -5.84673 -6.27805 -5.49402 -5.97836 -6.3447 -5.48814 -5.99603 -6.74675 -5.57907 -6.27903 -6.80107 -5.58969 -6.32057 -7.20215 -5.69937 -6.59825 -7.2588 -5.71552 -6.63457 -7.64494 -5.6757 -6.94971 -7.69434 -5.67266 -6.99808 -8.06129 -5.66071 -7.33749 -8.0954 -5.67723 -7.3954 -8.28318 -5.79391 -7.7016 -1.08261 -1.08327 -2.96793 -1.35666 -1.20228 -2.68402 -1.3181 -1.43718 -3.53087 0.495055 0.0615247 -3.03369 0.990611 0.127398 -3.04294 1.36333 0.176597 -3.06572 1.8591 0.228883 -3.10419 1.92669 0.238878 -3.11517 2.41553 0.300764 -3.20005 2.48332 0.306391 -3.21281 2.95674 0.461852 -3.1716 3.02342 0.480378 -3.17079 3.49059 0.649791 -3.22606 3.55521 0.673366 -3.23366 4.03556 0.724988 -3.36248 4.10184 0.730573 -3.38159 4.58115 0.817189 -3.49453 4.64576 0.827241 -3.5172 5.12843 0.882505 -3.63542 5.19417 0.893206 -3.65422 5.6748 0.937781 -3.78465 5.74031 0.95217 -3.80169 6.21604 1.07029 -3.90034 6.28028 1.08379 -3.92225 6.73567 1.2478 -4.04762 6.79888 1.26627 -4.0689 7.24984 1.39809 -4.23996 7.31246 1.4181 -4.26158 7.74527 1.5587 -4.46873 7.80371 1.58823 -4.49111 8.2142 1.79018 -4.6929 8.27079 1.81827 -4.72113 8.71365 1.92148 -4.92904 8.77731 1.9287 -4.95521 9.24987 2.01801 -5.09199 9.30478 2.05358 -5.11456 9.72406 2.27525 -5.27287 9.7862 2.30459 -5.28105 10.2273 2.53701 -5.31882 10.289 2.56638 -5.32968 10.6321 2.9069 -5.45744 10.6807 2.95244 -5.47637 10.8394 3.08181 -5.55018 1.46635 -0.278881 -3.2444 1.50723 -0.487494 -3.31578 1.91852 0.243149 -3.17013 -0.129386 -0.476484 -3.07888 -0.230394 -0.962911 -3.13532 -0.369032 -1.3125 -3.11466 -0.57994 -1.76454 -3.08042 -0.603574 -1.82946 -3.07634 -0.764626 -2.30129 -3.03842 -0.79336 -2.36328 -3.04943 -0.949795 -2.82912 -3.1417 -0.964796 -2.8953 -3.15531 -1.11973 -3.3631 -3.23993 -1.14332 -3.42417 -3.26234 -1.29856 -3.85887 -3.45454 -1.31401 -3.92006 -3.48294 -1.41325 -4.37803 -3.65733 -1.4258 -4.43891 -3.68777 -1.54745 -4.86282 -3.92334 -1.56964 -4.91984 -3.95568 -1.73533 -5.32328 -4.20019 -1.75075 -5.3772 -4.24073 -1.87799 -5.75999 -4.53617 -1.89652 -5.81019 -4.58006 -1.96255 -6.16813 -4.92287 -1.98076 -6.21745 -4.96787 -2.08827 -6.58504 -5.2893 -2.1002 -6.63047 -5.34013 -2.16831 -6.955 -5.71435 -2.17771 -7.00043 -5.7657 -2.13247 -7.31528 -6.15147 -2.13912 -7.34964 -6.21118 -2.20038 -7.56393 -6.65876 -2.20965 -7.57654 -6.72617 -2.2866 -7.67374 -7.21056 -2.29249 -7.68801 -7.27802 -2.31447 -7.74239 -7.77457 -2.30959 -7.75371 -7.84266 -2.30219 -7.81374 -8.33899 -2.29989 -7.82061 -8.40782 -2.28662 -7.9034 -8.90074 -2.28119 -7.91381 -8.96894 -2.28036 -7.92355 -9.02577 -0.197318 -1.42715 -2.65928 -0.187372 -1.42422 -2.62447 -0.495787 0.04567 -3.04593 -0.987858 0.121218 -3.09239 -1.35909 0.175657 -3.12527 -1.84221 0.30392 -3.11346 -1.90748 0.322376 -3.1272 -2.36979 0.476818 -3.23864 -2.43208 0.499648 -3.25834 -2.87961 0.668831 -3.40357 -2.93608 0.698348 -3.43058 -3.35298 0.898451 -3.62072 -3.41054 0.926231 -3.64726 -3.83446 1.10072 -3.84686 -3.89248 1.12274 -3.8775 -4.26903 1.14602 -4.20563 -4.3172 1.13769 -4.25461 -4.6634 1.08842 -4.61199 -4.71161 1.08084 -4.66106 -5.01392 0.996632 -5.05031 -5.05602 0.993693 -5.10516 -5.3825 0.978027 -5.48353 -5.42817 0.977385 -5.53553 -5.74755 0.929191 -5.9172 -5.79276 0.922562 -5.96917 -6.09094 0.877565 -6.368 -6.12392 0.877291 -6.42884 -6.34787 0.75814 -6.85971 -6.3786 0.741665 -6.91949 -6.622 0.626883 -7.3409 -6.65795 0.614354 -7.39869 -6.9137 0.551796 -7.82375 -6.95686 0.535087 -7.87521 -7.25432 0.405092 -8.25549 -7.29336 0.378384 -8.306 -7.55339 0.220219 -8.7027 -7.58966 0.198512 -8.7575 -7.81489 0.102041 -9.19335 -7.84728 0.0890917 -9.25312 -8.07117 0.00629766 -9.65436 -1.34831 0.479894 -2.95582 0.322987 0.344741 -3.16381 0.573021 0.729945 -3.36155 0.725409 1.00149 -3.57344 0.901952 1.36565 -3.86708 0.924605 1.41995 -3.90351 1.09385 1.80575 -4.17279 1.11702 1.85984 -4.20922 1.2522 2.22601 -4.5217 1.2826 2.27245 -4.56304 1.49838 2.60909 -4.86322 1.5252 2.65857 -4.9035 1.676 3.0376 -5.19262 1.69694 3.08768 -5.23555 1.84706 3.44789 -5.54815 1.85692 3.50377 -5.58776 1.96571 3.82259 -5.95725 1.97924 3.86334 -6.01152 2.0725 4.15171 -6.4092 2.09072 4.18283 -6.46826 2.22428 4.41694 -6.8894 2.2506 4.44948 -6.94451 2.47696 4.60963 -7.36058 2.50654 4.62884 -7.42012 2.72534 4.76748 -7.8478 2.75699 4.79368 -7.90349 2.97277 4.92542 -8.33486 3.00155 4.94415 -8.39495 3.2403 5.09932 -8.80594 3.27182 5.12171 -8.86334 3.51796 5.29293 -9.26346 3.55077 5.30995 -9.32197 3.83201 5.30054 -9.73527 3.85229 5.29629 -9.8013 4.02711 5.35481 -10.2661 4.05367 5.36391 -10.3293 4.24463 5.42697 -10.7871 4.27208 5.4314 -10.8505 4.37286 5.47129 -11.1376 0.616208 1.11879 -3.58206 0.27341 -0.416526 -3.04187 0.54449 -0.834337 -3.08602 0.730116 -1.16183 -3.09833 0.959893 -1.60296 -3.14936 0.990687 -1.66348 -3.16269 1.21563 -2.09879 -3.26225 1.25205 -2.1536 -3.28368 1.51532 -2.5566 -3.41886 1.55262 -2.61114 -3.43945 1.80165 -3.02304 -3.57479 1.83607 -3.08009 -3.5935 2.08323 -3.47846 -3.76731 2.11576 -3.5345 -3.79164 2.28777 -3.97767 -3.94658 2.3041 -4.03961 -3.97278 2.41669 -4.48276 -4.17511 2.42841 -4.54489 -4.20326 2.47033 -5.00422 -4.39629 2.48388 -5.06552 -4.4254 2.60999 -5.52564 -4.57504 2.62573 -5.59045 -4.59349 2.72321 -6.05559 -4.74886 2.75064 -6.11585 -4.76903 2.95984 -6.54289 -4.92353 2.98879 -6.602 -4.94492 3.17423 -7.03923 -5.10126 3.19963 -7.09993 -5.12269 3.39458 -7.53257 -5.28024 3.4129 -7.59528 -5.30306 3.56356 -8.05748 -5.41996 3.58218 -8.12313 -5.43147 3.66621 -8.61125 -5.49994 3.67399 -8.6766 -5.52133 3.7536 -9.14796 -5.66791 3.77608 -9.20749 -5.6951 3.97905 -9.60338 -5.9233 4.00869 -9.6521 -5.96251 4.07169 -9.7556 -6.04552 0 0 -1.5 0.426646 -0.000184799 -1.76072 0.797885 0.042859 -2.09287 1.0747 0.0724925 -2.34656 1.44396 0.108363 -2.68175 1.4838 0.105037 -2.73825 1.76296 0.0651659 -3.15113 1.79424 0.0452426 -3.20956 1.98317 -0.0529962 -3.66195 1.99958 -0.0664631 -3.72782 2.16384 -0.0948856 -4.19921 2.19553 -0.09242 -4.26069 2.42806 -0.0693156 -4.70272 2.4596 -0.0643979 -4.76413 2.64351 0.0142263 -5.22238 2.66048 0.0303119 -5.28752 2.83389 0.13269 -5.74517 2.85731 0.143096 -5.80945 3.0544 0.210643 -6.26398 3.08255 0.220338 -6.32645 3.17344 0.221098 -6.81812 3.18439 0.219589 -6.88644 3.17945 0.215312 -7.38639 3.17845 0.211626 -7.45549 3.17038 0.223735 -7.95528 3.15792 0.23041 -8.02303 3.09212 0.285467 -8.51561 3.06098 0.295485 -8.5766 2.92893 0.414395 -9.04396 2.91067 0.43398 -9.10777 2.76311 0.498574 -9.58111 2.73787 0.511554 -9.64423 2.61849 0.627759 -10.1157 2.60259 0.642007 -10.1815 2.42397 0.835045 -10.6067 2.40361 0.858803 -10.6685 2.30417 0.927509 -11.1536 2.29322 0.939061 -11.221 2.26163 0.941474 -11.3644 0.927675 0.512767 -2.53241 0.833024 0.982392 -2.67557 0.662853 1.30218 -2.84521 0.435834 1.74762 -2.852 0.377652 1.8833 -2.8902 0.507765 1.49686 -2.41156 0.357446 1.68177 -2.04168 1.10369 0.186778 -3.05263 0.720916 0.261402 -3.36554 0.397694 0.291287 -3.59928 -0.00807587 0.265577 -3.8903 -0.116379 0.235782 -3.99343 0.517682 -0.125024 -3.84886 0.61652 -0.498801 -4.05891 1.68635 0.416394 -3.52675 1.59381 0.77773 -3.85972 1.5902 1.08755 -4.1127 1.51133 1.50901 -4.36989 1.52895 1.63638 -4.45188 1.09408 1.13718 -4.1502 0.659414 1.20056 -4.17565 2.3047 0.292472 -3.89535 2.59575 0.646323 -4.09555 2.87115 0.934099 -4.13215 3.18351 1.31639 -4.2114 3.29209 1.42344 -4.21367 3.0665 0.848092 -3.68 3.24433 0.775433 -3.28415 2.6755 -0.141965 -4.12966 3.07763 -0.331377 -3.90072 3.42208 -0.411895 -3.71398 3.85056 -0.52004 -3.48007 3.98132 -0.552637 -3.40871 3.44774 0.038751 -3.4989 3.46819 0.435228 -3.30919 2.06363 -0.0706614 -5.06936 1.71512 -0.109219 -5.4258 1.42801 -0.155905 -5.70037 1.07285 -0.141923 -6.05203 0.991965 -0.188308 -6.1727 1.20833 0.263036 -5.53841 1.01147 0.629109 -5.39406 3.09962 -0.208485 -5.27597 3.54459 -0.436016 -5.29113 3.90103 -0.617194 -5.30234 4.31406 -0.892101 -5.36424 4.45207 -0.937337 -5.41071 3.87294 -0.778184 -4.82981 3.88875 -0.925753 -4.41559 2.99306 0.615212 -5.7163 3.07937 1.08105 -5.55646 2.99372 1.4688 -5.5084 2.95242 1.95707 -5.40897 2.94499 2.10911 -5.39978 2.58246 1.45566 -5.79246 2.2221 1.44895 -6.04484 3.01474 0.69522 -6.46748 2.9511 1.17051 -6.60908 2.92009 1.54638 -6.74235 2.90492 2.01808 -6.90746 2.88405 2.1566 -6.96772 2.77819 1.40751 -7.20124 2.65523 1.28537 -7.60567 3.1324 -0.272786 -6.95618 3.09117 -0.763881 -7.04059 3.09444 -1.14797 -6.92895 3.17018 -1.63986 -6.88092 3.17877 -1.78853 -6.91376 3.42228 -1.02328 -6.57261 3.72309 -0.960604 -6.25768 2.74847 0.460121 -7.51351 2.39151 0.803848 -7.58007 2.15728 1.10999 -7.68689 1.84521 1.49749 -7.7365 1.7685 1.62073 -7.78319 2.23659 1.31923 -7.23976 2.23413 1.52561 -6.85117 3.62248 0.113985 -8.16665 4.10277 0.00320502 -8.25063 4.48079 -0.09883 -8.33242 4.96012 -0.186565 -8.44428 4.42335 -0.249315 -8.47819 2.94809 -0.175456 -8.70098 3.07321 -0.65676 -8.64909 3.09863 -0.874863 -8.72225 3.26616 0.0967492 -9.20727 3.30258 0.0715668 -9.25198 0.28441 -0.294065 -1.78747 0.545826 -0.635867 -2.04209 0.731691 -0.897574 -2.23912 0.964654 -1.16678 -2.5902 0.992938 -1.20525 -2.6403 1.22422 -1.45552 -3.00618 1.25604 -1.49001 -3.05704 1.47887 -1.75387 -3.41861 1.50009 -1.79141 -3.47273 1.67162 -2.0532 -3.86266 1.6849 -2.09618 -3.91525 1.7744 -2.41316 -4.29144 1.79143 -2.46003 -4.33942 1.92624 -2.81144 -4.66856 1.95293 -2.85723 -4.71306 2.08949 -3.25054 -4.98993 2.0959 -3.31032 -5.02421 2.14411 -3.6651 -5.37323 2.15163 -3.71438 -5.42122 2.22066 -4.0354 -5.79829 2.23037 -4.07977 -5.85051 2.28196 -4.39017 -6.23908 2.27698 -4.43155 -6.29432 2.26891 -4.69169 -6.72125 2.2653 -4.73506 -6.77506 2.25364 -5.0642 -7.15127 2.2588 -5.10757 -7.20495 2.2378 -5.41937 -7.59525 2.23286 -5.46301 -7.64873 2.22998 -5.4756 -7.6686 0.366424 -0.992723 -2.56703 0.159262 -1.11001 -3.00672 0.102445 -1.21592 -3.38824 0.0442957 -1.37293 -3.85937 0.033197 -1.40297 -4.00847 -0.167347 -1.61982 -3.26961 -0.390799 -1.98835 -3.18096 0.562104 -1.42808 -2.76166 0.125296 -1.6412 -2.87904 -0.233031 -1.80274 -2.95325 -0.667122 -2.0416 -2.88609 -0.770285 -2.15331 -2.89757 -0.211137 -1.76592 -3.45141 -0.18226 -1.73754 -3.88954 0.862833 -1.51738 -3.36467 0.47041 -1.45074 -3.66727 0.108653 -1.4083 -3.83259 -0.248582 -1.39776 -4.18226 -0.372093 -1.33894 -4.24963 0.188277 -0.931542 -3.9605 0.286592 -0.513989 -4.0584 1.57335 -2.20364 -3.19942 1.56136 -2.62378 -2.92861 1.5767 -3.02348 -2.92553 1.27674 -3.42323 -2.94032 1.21209 -3.55611 -2.90269 1.24288 -3.09869 -3.29009 0.952445 -3.15289 -3.61614 1.80769 -2.43514 -3.5688 1.97543 -2.84561 -3.33777 2.14558 -3.14497 -3.13421 2.32292 -3.53003 -2.86911 2.36598 -3.64663 -2.78077 2.60365 -2.94555 -3.15422 3.00727 -2.77078 -3.16634 1.90275 -2.05531 -4.6111 2.09131 -1.74423 -4.95413 2.23859 -1.43801 -5.16518 2.41633 -1.04367 -5.41598 2.46533 -0.921955 -5.49368 1.91444 -1.11466 -4.96425 1.61374 -0.857449 -4.77185 1.77315 -3.32039 -4.65687 1.56175 -3.77185 -4.61824 1.4856 -4.13933 -4.47983 1.45174 -4.49763 -4.13272 1.45283 -4.59082 -4.01203 1.20931 -4.2659 -4.87687 0.995878 -4.36005 -5.16709 2.24708 -3.59747 -4.64383 2.39261 -3.84352 -4.23362 2.50821 -3.9 -3.85487 2.63683 -3.9641 -3.52994 2.47459 -3.90723 -3.84317 2.49122 -3.46062 -5.68633 2.83907 -3.19501 -5.92811 2.89718 -3.14934 -5.97356 2.54924 -3.88182 -6.0351 0.158804 -0.369641 -1.7969 0.317984 -0.738951 -2.094 0.428349 -1.01211 -2.32865 0.612839 -1.30833 -2.68673 0.640826 -1.34423 -2.73885 0.839761 -1.61647 -3.10806 0.867832 -1.64263 -3.16565 1.09747 -1.89839 -3.52877 1.1308 -1.93275 -3.57874 1.36906 -2.17738 -3.94397 1.40678 -2.20897 -3.99264 1.6916 -2.40234 -4.35524 1.73196 -2.42847 -4.40502 2.05111 -2.65438 -4.71664 2.08114 -2.68445 -4.77126 2.28213 -2.88749 -5.1816 2.30723 -2.91532 -5.23978 2.49064 -3.11294 -5.66086 2.50149 -3.13964 -5.72378 2.57513 -3.31107 -6.15485 0.559749 -1.34023 -1.97499 0.587097 -1.7113 -1.64099 0.6126 -2.00575 -1.37146 0.651746 -2.3577 -1.01848 0.691019 -2.47284 -0.926524 1.11126 -1.97412 -1.35294 1.54877 -1.94046 -1.32052 0.635137 -1.00274 -3.10403 0.594737 -0.659496 -3.46535 0.535645 -0.291936 -3.61166 0.620626 0.142161 -3.84477 0.591042 0.243441 -3.95486 0.0541135 -0.373256 -3.71897 -0.368742 -0.433593 -3.82457 0.439929 -1.82076 -3.35318 -0.0053235 -2.00427 -3.48762 -0.342464 -2.14403 -3.65134 -0.698943 -2.44865 -3.82493 -0.806842 -2.54086 -3.88067 -0.63461 -2.02738 -3.2627 -0.739738 -1.97808 -3.11051 0.931596 -2.38801 -3.52344 0.840973 -2.87554 -3.45942 0.652496 -3.21659 -3.36906 0.532016 -3.38396 -3.32628 1.2429 -1.89724 -4.34756 1.23688 -1.60204 -4.67661 1.61988 -2.18371 -4.45375 -0.0748347 -0.417566 -1.76465 -0.121744 -0.838953 -2.02966 -0.12204 -1.1688 -2.21148 -0.158294 -1.58756 -2.48226 -0.168686 -1.64085 -2.52518 -0.236025 -2.04322 -2.81426 -0.243994 -2.10081 -2.85179 -0.293273 -2.51131 -3.13298 -0.294768 -2.56599 -3.17536 -0.356682 -2.85234 -3.58054 -0.373453 -2.88469 -3.63938 -0.438768 -3.0367 -3.94387 -0.428325 -1.04573 -2.58704 -0.587656 -0.93264 -2.81129 -0.2961 -1.6354 -2.50639 -0.355557 -0.29501 -1.69118 -0.710345 -0.551838 -1.93235 -0.978073 -0.761178 -2.0947 -1.13181 -0.901636 -2.17547 
</DataArray>
</Points>
<Lines>
<DataArray type="Int32" Name="connectivity" NumberOfComponents="1" format="ascii" >