<?xml version="1.0"?><VTKFile type="PolyData" version="0.1" byte_order="LittleEndian">
<PolyData>
<Piece NumberOfLines="226" NumberOfPoints="228">
<CellData Scalars=" CellData">
<DataArray type="Float32" Name="radius" NumberOfComponents="1" format="ascii" >
0.0436 0.0436 0.0436 0.0436 0.0436 0.0436 0.0436 0.0436 0.0436 0.0436 0.0436 0.0436 0.0436 0.0436 0.0436 0.0436 0.0436 0.0436 0.0436 0.0436 0.0436 0.0436 0.0436 0.0436 0.0436 0.0436 0.0436 0.0436 0.0436 0.0436 0.0436 0.0436 0.0436 0.0436 0.0436 0.0436 0.0436 0.0436 0.0436 0.0436 0.0436 0.0436 0.0436 0.0436 0.0436 0.0436 0.0436 0.0436 0.0436 0.0436 0.0436 0.0436 0.0436 0.0436 0.0436 0.0436 0.0436 0.0436 0.0436 0.0436 0.0436 0.0436 0.0436 0.0436 0.0436 0.0436 0.0436 0.0436 0.0436 0.0436 0.0436 0.0436 0.0436 0.0436 0.0436 0.0436 0.0436 0.0436 0.0436 0.0436 0.0436 0.0436 0.0436 0.0436 0.0436 0.0436 0.0436 0.0436 0.0436 0.0436 0.0436 0.0436 0.0436 0.0436 0.0436 0.0436 0.0436 0.0436 0.0436 0.0436 0.0436 0.0436 0.0436 0.0436 0.0436 0.0436 0.0436 0.0436 0.0436 0.0436 0.0436 0.0436 0.0436 0.0436 0.0436 0.0436 0.0436 0.0436 0.0436 0.0436 0.0436 0.0436 0.0436 0.0436 0.0436 0.0436 0.0436 0.0436 0.0436 0.0436 0.0436 0.0436 0.0436 0.0436 0.0436 0.0436 0.0436 0.0436 0.0436 0.0436 0.0436 0.0436 0.0436 0.0436 0.0436 0.0436 0.0436 0.0436 0.0436 0.0436 0.0436 0.0436 0.0436 0.0436 0.0436 0.0436 0.0436 0.0436 0.0436 0.0436 0.0436 0.0436 0.0436 0.0436 0.0436 0.0436 0.0436 0.0436 0.0436 0.0436 0.0436 0.0436 0.0436 0.0436 0.0436 0.0436 0.0436 0.0436 0.0436 0.02 0.02 0.02 0.02 0.02 0.01 0.01 0.02 0.02 0.02 0.02 0.02 0.01 0.01 0.02 0.02 0.02 0.02 0.02 0.01 0.01 0.02 0.02 0.02 0.02 0.02 0.02 0.02 0.0436 0.0436 0.0436 0.0436 0.0436 0.0436 0.0436 0.0436 0.0436 0.0436 0.0436 0.0436 0.02 0.02 0.02 0.0436 0.0436 0.0436 0.0436 
</DataArray>
<DataArray type="Float32" Name="subType" NumberOfComponents="1" format="ascii" >
1 1 1 1 1 1 1 1 1 1 1 1 1 1 1 1 1 1 1 1 1 1 1 1 1 1 4 4 4 4 4 4 4 4 4 4 4 4 4 4 4 4 4 4 4 4 4 4 4 4 4 4 4 4 4 4 4 4 4 4 4 4 4 4 4 4 4 4 4 4 4 4 4 4 4 4 4 4 4 4 4 4 4 4 4 4 4 4 4 4 4 4 4 4 4 4 4 4 4 4 4 4 4 4 4 4 4 4 4 4 4 4 4 4 4 4 4 4 4 4 4 4 4 4 4 4 4 4 4 4 4 4 4 4 4 4 4 4 4 4 4 4 4 4 4 4 4 4 4 4 4 4 4 4 4 4 4 4 4 5 5 5 5 5 5 5 5 5 5 5 5 5 5 5 5 5 5 5 5 2 2 2 2 2 3 3 2 2 2 2 2 3 3 2 2 2 2 2 3 3 2 2 2 2 2 2 2 5 5 5 5 5 5 5 5 5 5 5 5 2 2 2 5 5 5 5 
</DataArray>
<DataArray type="Float32" Name="creationTime" NumberOfComponents="1" format="ascii" >
0.3125 0.625 0.8604 1.1729 1.21615 1.52865 1.57191 1.88441 1.92766 2.24016 2.28341 2.59591 2.63917 2.95167 2.99492 3.30742 3.35067 3.66317 3.70642 4.01892 4.06218 4.37468 4.41793 4.73043 4.77368 5 0.8125 1.125 1.3604 1.6729 1.71615 2.02865 2.07191 2.38441 2.42766 2.74016 2.78341 3.09591 3.13917 3.45167 3.49492 3.80742 3.85067 4.16317 4.20642 4.51892 4.56218 4.87468 4.91793 5 0.9125 1.225 1.4604 1.7729 1.81615 2.12865 2.17191 2.48441 2.52766 2.84016 2.88341 3.19591 3.23917 3.55167 3.59492 3.90742 3.95067 4.26317 4.30642 4.61892 4.66218 4.97468 5 1.0125 1.325 1.5604 1.8729 1.91615 2.22865 2.27191 2.58441 2.62766 2.94016 2.98341 3.29591 3.33917 3.65167 3.69492 4.00742 4.05067 4.36317 4.40642 4.71892 4.76218 5 1.1125 1.425 1.6604 1.9729 2.01615 2.32865 2.37191 2.68441 2.72766 3.04016 3.08341 3.39591 3.43917 3.75167 3.79492 4.10742 4.15067 4.46317 4.50642 4.81892 4.86218 5 1.2125 1.525 1.7604 2.0729 2.11615 2.42865 2.47191 2.78441 2.82766 3.14016 3.18341 3.49591 3.53917 3.85167 3.89492 4.20742 4.25067 4.56317 4.60642 4.91892 4.96218 5 1.3125 1.625 1.8604 2.1729 2.21615 2.52865 2.57191 2.88441 2.92766 3.24016 3.28341 3.59591 3.63917 3.95167 3.99492 4.30742 4.35067 4.66317 4.70642 5 1.3125 1.625 1.8604 2.1729 2.21615 2.52865 2.57191 2.88441 2.92766 3.24016 3.28341 3.59591 3.63917 3.95167 3.99492 4.30742 4.35067 4.66317 4.70642 5 3.34172 3.6078 3.82066 4.08673 4.16788 4.20704 4.39427 3.69748 3.96355 4.17641 4.44249 4.52364 4.56279 4.75002 4.05323 4.3193 4.53216 4.79824 4.87939 4.91854 5 4.40898 4.67506 4.88792 5 4.76474 5 5 2.8125 3.125 3.3604 3.6729 3.71615 4.02865 4.07191 4.38441 4.42766 4.74016 4.78341 5 4.84172 5 5 4.3125 4.625 4.8604 5 
</DataArray>
<DataArray type="Float32" Name="organType" NumberOfComponents="1" format="ascii" >
2 2 2 2 2 2 2 2 2 2 2 2 2 2 2 2 2 2 2 2 2 2 2 2 2 2 2 2 2 2 2 2 2 2 2 2 2 2 2 2 2 2 2 2 2 2 2 2 2 2 2 2 2 2 2 2 2 2 2 2 2 2 2 2 2 2 2 2 2 2 2 2 2 2 2 2 2 2 2 2 2 2 2 2 2 2 2 2 2 2 2 2 2 2 2 2 2 2 2 2 2 2 2 2 2 2 2 2 2 2 2 2 2 2 2 2 2 2 2 2 2 2 2 2 2 2 2 2 2 2 2 2 2 2 2 2 2 2 2 2 2 2 2 2 2 2 2 2 2 2 2 2 2 2 2 2 2 2 2 2 2 2 2 2 2 2 2 2 2 2 2 2 2 2 2 2 2 2 2 2 2 2 2 2 2 2 2 2 2 2 2 2 2 2 2 2 2 2 2 2 2 2 2 2 2 2 2 2 2 2 2 2 2 2 2 2 2 2 2 2 2 2 2 2 2 2 
</DataArray>

</CellData>
<Points>
<DataArray type="Float32" Name="Coordinates" NumberOfComponents="3" format="ascii" >
0 0 -3 -0.0406714 -0.0454438 -3.49627 -0.0764191 -0.106548 -3.99123 -0.00663253 -0.152505 -4.35848 0.0687606 -0.115481 -4.85138 0.0579165 -0.109538 -4.91947 -0.0234898 -0.0741915 -5.41153 -0.027395 -0.0687279 -5.48041 -0.0549266 -0.0306247 -5.97819 -0.0597868 -0.0294939 -6.04722 -0.108107 -0.0183946 -6.54475 -0.107877 -0.010981 -6.61356 -0.133208 0.0467715 -7.10957 -0.136819 0.0662291 -7.17588 -0.0873238 0.107682 -7.6717 -0.0808123 0.111047 -7.74051 -0.000238537 -0.00575988 -8.21995 0.00333993 -0.0334367 -8.28328 0.0577713 -0.271696 -8.71948 0.0662904 -0.304159 -8.78 0.184167 -0.425401 -9.25054 0.189729 -0.431274 -9.31927 0.219931 -0.477061 -9.81625 0.220824 -0.480783 -9.88535 0.225396 -0.505313 -10.3847 0.226444 -0.508241 -10.4539 0.22252 -0.464833 -10.8133 -0.314853 -0.372789 -3.10907 -0.585432 -0.765729 -3.25868 -0.778715 -1.07108 -3.36479 -1.05202 -1.46578 -3.5045 -1.08932 -1.5207 -3.52403 -1.35557 -1.91847 -3.66858 -1.39839 -1.97126 -3.68156 -1.70607 -2.3546 -3.77315 -1.74774 -2.40806 -3.78707 -2.04506 -2.79601 -3.89244 -2.0864 -2.85032 -3.90387 -2.37816 -3.24103 -4.01442 -2.41648 -3.29555 -4.03309 -2.69472 -3.69003 -4.16335 -2.74604 -3.73407 -4.17805 -3.11987 -4.01911 -4.34836 -3.1677 -4.064 -4.3704 -3.52304 -4.37906 -4.52683 -3.57335 -4.42054 -4.55002 -3.943 -4.69958 -4.73844 -3.99547 -4.73827 -4.76165 -4.37225 -5.00783 -4.94974 -4.42357 -5.04133 -4.98187 -4.52926 -5.08963 -5.04302 0.495055 0.0615247 -3.03369 0.990611 0.127398 -3.04294 1.36333 0.176597 -3.06572 1.8591 0.228883 -3.10419 1.92669 0.238878 -3.11517 2.41553 0.300764 -3.20005 2.48332 0.306391 -3.21281 2.95674 0.461852 -3.1716 3.02342 0.480378 -3.17079 3.49059 0.649791 -3.22606 3.55521 0.673366 -3.23366 4.03556 0.724988 -3.36248 4.10184 0.730573 -3.38159 4.58115 0.817189 -3.49453 4.64576 0.827241 -3.5172 5.12843 0.882505 -3.63542 5.19417 0.893206 -3.65422 5.6748 0.937781 -3.78465 5.74031 0.95217 -3.80169 6.21604 1.07029 -3.90034 6.28028 1.08379 -3.92225 6.73567 1.2478 -4.04762 6.77268 1.25861 -4.06008 -0.129386 -0.476484 -3.07888 -0.230394 -0.962911 -3.13532 -0.369032 -1.3125 -3.11466 -0.57994 -1.76454 -3.08042 -0.603574 -1.82946 -3.07634 -0.764626 -2.30129 -3.03842 -0.79336 -2.36328 -3.04943 -0.949795 -2.82912 -3.1417 -0.964796 -2.8953 -3.15531 -1.11973 -3.3631 -3.23993 -1.14332 -3.42417 -3.26234 -1.29856 -3.85887 -3.45454 -1.31401 -3.92006 -3.48294 -1.41325 -4.37803 -3.65733 -1.4258 -4.43891 -3.68777 -1.54745 -4.86282 -3.92334 -1.56964 -4.91984 -3.95568 -1.73533 -5.32328 -4.20019 -1.75075 -5.3772 -4.24073 -1.87799 -5.75999 -4.53617 -1.89652 -5.81019 -4.58006 -1.94677 -6.08259 -4.84095 -0.495787 0.04567 -3.04593 -0.987858 0.121218 -3.09239 -1.35909 0.175657 -3.12527 -1.84221 0.30392 -3.11346 -1.90748 0.322376 -3.1272 -2.36979 0.476818 -3.23864 -2.43208 0.499648 -3.25834 -2.87961 0.668831 -3.40357 -2.93608 0.698348 -3.43058 -3.35298 0.898451 -3.62072 -3.41054 0.926231 -3.64726 -3.83446 1.10072 -3.84686 -3.89248 1.12274 -3.8775 -4.26903 1.14602 -4.20563 -4.3172 1.13769 -4.25461 -4.6634 1.08842 -4.61199 -4.71161 1.08084 -4.66106 -5.01392 0.996632 -5.05031 -5.05602 0.993693 -5.10516 -5.3825 0.978027 -5.48353 -5.42817 0.977385 -5.53553 -5.56902 0.95613 -5.70386 0.322987 0.344741 -3.16381 0.573021 0.729945 -3.36155 0.725409 1.00149 -3.57344 0.901952 1.36565 -3.86708 0.924605 1.41995 -3.90351 1.09385 1.80575 -4.17279 1.11702 1.85984 -4.20922 1.2522 2.22601 -4.5217 1.2826 2.27245 -4.56304 1.49838 2.60909 -4.86322 1.5252 2.65857 -4.9035 1.676 3.0376 -5.19262 1.69694 3.08768 -5.23555 1.84706 3.44789 -5.54815 1.85692 3.50377 -5.58776 1.96571 3.82259 -5.95725 1.97924 3.86334 -6.01152 2.0725 4.15171 -6.4092 2.09072 4.18283 -6.46826 2.22428 4.41694 -6.8894 2.2506 4.44948 -6.94451 2.278 4.46886 -6.99487 0.27341 -0.416526 -3.04187 0.54449 -0.834337 -3.08602 0.730116 -1.16183 -3.09833 0.959893 -1.60296 -3.14936 0.990687 -1.66348 -3.16269 1.21563 -2.09879 -3.26225 1.25205 -2.1536 -3.28368 1.51532 -2.5566 -3.41886 1.55262 -2.61114 -3.43945 1.80165 -3.02304 -3.57479 1.83607 -3.08009 -3.5935 2.08323 -3.47846 -3.76731 2.11576 -3.5345 -3.79164 2.28777 -3.97767 -3.94658 2.3041 -4.03961 -3.97278 2.41669 -4.48276 -4.17511 2.42841 -4.54489 -4.20326 2.47033 -5.00422 -4.39629 2.48388 -5.06552 -4.4254 2.60235 -5.49777 -4.56597 0 0 -1.5 0.426646 -0.000184799 -1.76072 0.797885 0.042859 -2.09287 1.0747 0.0724925 -2.34656 1.44396 0.108363 -2.68175 1.4838 0.105037 -2.73825 1.76296 0.0651659 -3.15113 1.79424 0.0452426 -3.20956 1.98317 -0.0529962 -3.66195 1.99958 -0.0664631 -3.72782 2.16384 -0.0948856 -4.19921 2.19553 -0.09242 -4.26069 2.42806 -0.0693156 -4.70272 2.4596 -0.0643979 -4.76413 2.64351 0.0142263 -5.22238 2.66048 0.0303119 -5.28752 2.83389 0.13269 -5.74517 2.85731 0.143096 -5.80945 3.0544 0.210643 -6.26398 3.08255 0.220338 -6.32645 3.16793 0.221052 -6.78835 0.927675 0.512767 -2.53241 0.833024 0.982392 -2.67557 0.662853 1.30218 -2.84521 0.435834 1.74762 -2.852 0.377652 1.8833 -2.8902 0.507765 1.49686 -2.41156 0.357446 1.68177 -2.04168 1.10369 0.186778 -3.05263 0.720916 0.261402 -3.36554 0.397694 0.291287 -3.59928 -0.00807587 0.265577 -3.8903 -0.116379 0.235782 -3.99343 0.517682 -0.125024 -3.84886 0.61652 -0.498801 -4.05891 1.68635 0.416394 -3.52675 1.59381 0.77773 -3.85972 1.5902 1.08755 -4.1127 1.51133 1.50901 -4.36989 1.52895 1.63638 -4.45188 1.09408 1.13718 -4.1502 0.904976 1.16476 -4.16127 2.3047 0.292472 -3.89535 2.59575 0.646323 -4.09555 2.87115 0.934099 -4.13215 3.00273 1.09514 -4.16554 2.6755 -0.141965 -4.12966 3.03107 -0.309443 -3.92723 2.24294 -0.067825 -4.93114 0.28441 -0.294065 -1.78747 0.545826 -0.635867 -2.04209 0.731691 -0.897574 -2.23912 0.964654 -1.16678 -2.5902 0.992938 -1.20525 -2.6403 1.22422 -1.45552 -3.00618 1.25604 -1.49001 -3.05704 1.47887 -1.75387 -3.41861 1.50009 -1.79141 -3.47273 1.67162 -2.0532 -3.86266 1.6849 -2.09618 -3.91525 1.74693 -2.31587 -4.17598 0.366424 -0.992723 -2.56703 0.243192 -1.06249 -2.82859 0.881862 -1.2627 -2.67159 0.158804 -0.369641 -1.7969 0.317984 -0.738951 -2.094 0.428349 -1.01211 -2.32865 0.510764 -1.14444 -2.48861 
</DataArray>
</Points>
<Lines>
<DataArray type="Int32" Name="connectivity" NumberOfComponents="1" format="ascii" >
0 1 1 2 2 3 3 4 4 5 5 6 6 7 7 8 8 9 9 10 10 11 11 12 12 13 13 14 14 15 15 16 16 17 17 18 18 19 19 20 20 21 21 22 22 23 23 24 24 25 25 26 0 27 27 28 28 29 29 30 30 31 31 32 32 33 33 34 34 35 35 36 36 37 37 38 38 39 39 40 40 41 41 42 42 43 43 44 44 45 45 46 46 47 47 48 48 49 49 50 0 51 51 52 52 53 53 54 54 55 55 56 56 57 57 58 58 59 59 60 60 61 61 62 62 63 63 64 64 65 65 66 66 67 67 68 68 69 69 70 70 71 71 72 72 73 0 74 74 75 75 76 76 77 77 78 78 79 79 80 80 81 81 82 82 83 83 84 84 85 85 86 86 87 87 88 88 89 89 90 90 91 91 92 92 93 93 94 94 95 0 96 96 97 97 98 98 99 99 100 100 101 101 102 102 103 103 104 104 105 105 106 106 107 107 108 108 109 109 110 110 111 111 112 112 113 113 114 114 115 115 116 116 117 0 118 118 119 119 120 120 121 121 122 122 123 123 124 124 125 125 126 126 127 127 128 128 129 129 130 130 131 131 132 132 133 133 134 134 135 135 136 136 137 137 138 138 139 0 140 140 141 141 142 142 143 143 144 144 145 145 146 146 147 147 148 148 149 149 150 150 151 151 152 152 153 153 154 154 155 155 156 156 157 157 158 158 159 160 161 161 162 162 163 163 164 164 165 165 166 166 167 167 168 168 169 169 170 170 171 171 172 172 173 173 174 174 175 175 176 176 177 177 178 178 179 179 180 163 181 181 182 182 183 183 184 184 185 183 186 186 187 165 188 188 189 189 190 190 191 191 192 190 193 193 194 167 195 195 196 196 197 197 198 198 199 197 200 200 201 169 202 202 203 203 204 204 205 171 206 206 207 173 208 160 209 209 210 210 211 211 212 212 213 213 214 214 215 215 216 216 217 217 218 218 219 219 220 211 221 221 222 213 223 160 224 224 225 225 226 226 227 
</DataArray>
<DataArray type="Int32" Name="offsets" NumberOfComponents="1" format="ascii" >
2 4 6 8 10 12 14 16 18 20 22 24 26 28 30 32 34 36 38 40 42 44 46 48 50 52 54 56 58 60 62 64 66 68 70 72 74 76 78 80 82 84 86 88 90 92 94 96 98 100 102 104 106 108 110 112 114 116 118 120 122 124 126 128 130 132 134 136 138 140 142 144 146 148 150 152 154 156 158 160 162 164 166 168 170 172 174 176 178 180 182 184 186 188 190 192 194 196 198 200 202 204 206 208 210 212 214 216 218 220 222 224 226 228 230 232 234 236 238 240 242 244 246 248 250 252 254 256 258 260 262 264 266 268 270 272 274 276 278 280 282 284 286 288 290 292 294 296 298 300 302 304 306 308 310 312 314 316 318 320 322 324 326 328 330 332 334 336 338 340 342 344 346 348 350 352 354 356 358 360 362 364 366 368 370 372 374 376 378 380 382 384 386 388 390 392 394 396 398 400 402 404 406 408 410 412 414 416 418 420 422 424 426 428 430 432 434 436 438 440 442 444 446 448 450 452 
</DataArray>

</Lines>
</Piece>
</PolyData>
</VTKFile>
