<?xml version="1.0"?>
<VTKFile type="UnstructuredGrid" version="0.1" byte_order="LittleEndian">
  <UnstructuredGrid>
    <Piece NumberOfCells="500" NumberOfPoints="726">
      <CellData Scalars="p (Pa)">
        <DataArray type="Float32" Name="p (Pa)" NumberOfComponents="1" format="ascii">
          -37732.7 -45605 -61809 -82854.3 -107226 -40534.9 -52526.5 -81215.7 -113086 -149381 -43304.2 -63900.4
          -143892 -207433 -278852 -39205.7 -53048 -89840.1 -152165 -309592 -33452.7 -43901.1 -71353.2 -137872
          -353238 -27784.4 -37157.7 -64535.9 -165785 -1.18581e+06 -21965.6 -30120.5 -54510.8 -132645 -187701 -15863.6
          -20809 -32446 -52613.3 -61764.4 -11209.5 -14071.1 -19760.4 -26988.6 -30229.4 -8794.25 -10769.4 -14369.5
          -18383.1 -20387.8 -42933.8 -53118 -75550.4 -100487 -128122 -47330.4 -67868.8 -145115 -191633 -224138
          -53082.2 -119444 -1.12866e+06 -1.18915e+06 -1.14031e+06 -43791.1 -64928.7 -147133 -228639 -418284 -34353.1 -44685.5
          -70585.5 -117876 -251843 -26418.6 -33342.6 -49817.3 -83333.4 -166692 -19585.6 -24533 -35687.2 -54655.7
          -72144 -13785.5 -16932.4 -23280.6 -31787.2 -37268.8 -9649.28 -11640.6 -15322.6 -19603.7 -22143.4 -7533.3
          -9004.11 -11599.5 -14435.4 -16149.5 -42050.2 -50495.6 -68044.5 -92132.4 -126426 -44755.5 -57667.9 -88870.4
          -128501 -211795 -46838.7 -68802 -154012 -255598 -1.13253e+06 -40750.9 -55129.9 -95906.1 -204679 -1.19208e+06
          -32059.3 -40736.2 -61633.1 -102977 -200841 -23745.6 -29153.7 -41014.8 -60716.5 -86996.6 -16718.5 -20154.4
          -27123.7 -36948.8 -45826.4 -11240.3 -13398.1 -17467.8 -22498.5 -26268.6 -7522.88 -8941.2 -11480.3 -14382.5
          -16431.6 -5657.23 -6746.75 -8645.47 -10744 -12223.1 -37916.3 -44465.6 -58053.3 -78889.2 -109728 -39292
          -47873.6 -66855.3 -96993.4 -146010 -39922.9 -51924.1 -83424.4 -142483 -257941 -36256.9 -48417.7 -85528.1
          -199899 -378436 -28947.8 -37521.8 -61062.9 -119766 -200042 -20906.4 -25930.5 -37481.8 -57787.3 -78447.7
          -14006.9 -16876.4 -22680.5 -30805.3 -37756.5 -8805.81 -10505.4 -13677.4 -17590.1 -20690.2 -5380.75 -6484.51
          -8452.59 -10735.3 -12512.8 -3689.11 -4543.18 -6035.12 -7725.76 -9049.46 -33180.3 -38582.6 -50011.5 -68379.5
          -94636 -33976.3 -40838.6 -56535.8 -84612.5 -122722 -34339.3 -44345.3 -73873.8 -164387 -246784 -32091.7
          -46062.8 -123915 -1.15962e+06 -1.20032e+06 -25745.1 -35653.1 -78305.7 -465798 -1.13763e+06 -18123.9 -23263.4 -37121.6
          -74669.2 -117025 -11539.2 -14193.4 -19837 -28653.8 -36195.5 -6636.74 -8114.59 -10914.8 -14485.1 -17379.3
          -3449.68 -4383.23 -6061.1 -8051.91 -9687.26 -1888.03 -2605.22 -3868.34 -5335.17 -6561.38 -28847 -33425.4
          -43159.4 -59053.8 -82358.9 -29210.1 -34720.5 -47086.2 -68950 -103894 -29052.2 -36324 -55049.3 -97582.3
          -199291 -26841.5 -35623.2 -64076.1 -181114 -1.18681e+06 -21577.9 -28308.5 -47346.9 -99739.7 -192748 -15086.4
          -19078.9 -28347.9 -45012.3 -63133 -9225.09 -11448.4 -15958.1 -22346.4 -28097.9 -4750.38 -6031.05 -8432.43
          -11459 -14054 -1809.18 -2629.31 -4106.65 -5879.38 -7405.99 -362.194 -995.531 -2118.16 -3444.46 -4602.61
          -25409.7 -29451.6 -38062.1 -52219.9 -73060.5 -25483 -30119.7 -40384.2 -58418.6 -87937.2 -24928.1 -30501.4
          -43793.9 -70697 -127320 -22648.6 -28668.3 -44180.3 -82092.9 -212391 -18131 -22956.5 -34466.8 -56936.6
          -95424 -12558 -15713.7 -22485.4 -33214 -45923.9 -7346.4 -9243.43 -12982.6 -18110.3 -23118.6 -3254.33
          -4398.82 -6531.16 -9219.55 -11647.6 -520.266 -1270.44 -2624.51 -4264.38 -5722.51 835.458 250.834 -790.136
          -2033.56 -3145.92 -23054.2 -26848.4 -34981.5 -48492.5 -68394.1 -23016.2 -27298.3 -36842.9 -53969.8 -83002.2
          -22339.8 -27325.4 -39182.2 -63634.9 -118753 -20134.4 -25346.1 -38339.9 -68705.7 -173021 -16043.4 -20339.6
          -30448.6 -50219.3 -87424.9 -10957 -13876.5 -20148.2 -30273 -43178.7 -6102.35 -7905.09 -11480.4 -16474.3
          -21548.2 -2229.47 -3331.28 -5396.71 -8033.68 -10453.8 382.686 -341.83 -1655.59 -3258.89 -4693.48 1683.85
          1119.75 111.754 -1098.77 -2186.47 -21707.4 -25460.5 -33580 -47276.7 -67868 -21691.8 -25984.3 -35763.8
          -54209 -89852.2 -21105.5 -26236.7 -39033.7 -69004.4 -172507 -19089.9 -24647.3 -39564.2 -79798.7 -232247
          -15216.6 -19940.9 -32195.3 -62154.1 -149260 -10259.2 -13429.9 -20699 -34065.7 -54325.3 -5482.46 -7392.34
          -11320.9 -17167.1 -23392 -1663.87 -2802.04 -4974.09 -7818.8 -10423.9 911.362 178.561 -1160.37 -2807.62
          -4264.9 2193.53 1630.27 620.497 -594.717 -1676.95 -21158.1 -24935.6 -33123.9 -46820.8 -66311.7 -21202
          -25607.3 -35755.2 -54817.4 -87457.3 -20760.2 -26272.3 -40707 -76636.7 -183674 -18952.7 -25404.3 -45993.5
          -139570 -1.18731e+06 -15171 -20822 -38824.6 -122713 -1.18422e+06 -10151.7 -13772.8 -22996.8 -45166.5 -109376
          -5313.5 -7395.12 -11896.3 -19345.6 -28851 -1467.56 -2663.74 -4995.94 -8164.54 -11137.2 1114.12 363.403
          -1019.15 -2736.75 -4243.52 2396.11 1827.13 804.346 -428.337 -1515.89
        </DataArray>
        <DataArray type="Float32" Name="saturation" NumberOfComponents="1" format="ascii">
          0.258604 0.256228 0.251928 0.247273 0.242849 0.257734 0.254302 0.247604 0.241907 0.23688 0.256901 0.251423
          0.237563 0.230884 0.225604 0.258143 0.254163 0.245912 0.236542 0.223796 0.259989 0.256725 0.249704 0.23834
          0.221571 0.261937 0.258786 0.251272 0.234974 0.205051 0.264085 0.261118 0.253776 0.239042 0.232704 0.266521
          0.264532 0.260326 0.254279 0.251939 0.26852 0.267275 0.264942 0.262221 0.26108 0.269612 0.268716 0.267148
          0.265491 0.264696 0.257011 0.254144 0.248787 0.243985 0.239669 0.255734 0.250492 0.237408 0.232326 0.229484
          0.254154 0.240931 0.205576 0.205021 0.205466 0.256757 0.251178 0.237156 0.229126 0.218825 0.259692 0.256495
          0.249875 0.241167 0.227399 0.262427 0.260026 0.255039 0.247177 0.234875 0.265011 0.263117 0.259258 0.253737
          0.249528 0.267397 0.266079 0.263585 0.260548 0.258751 0.269221 0.26833 0.266746 0.265004 0.264017 0.270197
          0.269515 0.268348 0.26712 0.266402 0.257275 0.254853 0.250452 0.245483 0.23991 0.256474 0.25296 0.246096
          0.239616 0.230507 0.255874 0.250279 0.236322 0.227136 0.20554 0.257668 0.253613 0.244794 0.231127 0.204995
          0.260456 0.257673 0.251971 0.243558 0.231471 0.263411 0.261454 0.257588 0.252196 0.246456 0.266167 0.264787
          0.262173 0.258853 0.256164 0.268507 0.267564 0.265861 0.263881 0.262481 0.270202 0.269544 0.2684 0.267143
          0.266285 0.271088 0.270567 0.26968 0.268728 0.268074 0.258546 0.256559 0.252862 0.248083 0.242441 0.258117
          0.255581 0.250727 0.244599 0.237296 0.257922 0.254464 0.247159 0.237742 0.226975 0.259074 0.255428 0.246742
          0.231556 0.220437 0.261526 0.258671 0.252111 0.240883 0.231543 0.264494 0.262604 0.258684 0.252929 0.248175
          0.267303 0.266102 0.263812 0.260882 0.258597 0.269606 0.268835 0.267444 0.265811 0.264578 0.271221 0.270692
          0.269769 0.268732 0.267947 0.27205 0.271629 0.270906 0.270107 0.269494 0.26008 0.258337 0.254985 0.250375
          0.245023 0.259816 0.257641 0.253249 0.246923 0.240445 0.259697 0.256594 0.249149 0.235129 0.227759 0.260445
          0.256096 0.240271 0.205287 0.204923 0.262672 0.259269 0.248204 0.217145 0.205491 0.265595 0.263592 0.258798
          0.248977 0.241297 0.268374 0.267223 0.264912 0.261629 0.259094 0.27062 0.269926 0.268651 0.267099 0.265897
          0.27217 0.271708 0.270894 0.269955 0.269204 0.272957 0.272593 0.271962 0.271243 0.270655 0.261561 0.259999
          0.256944 0.25261 0.247372 0.261434 0.259572 0.255804 0.250245 0.243403 0.26149 0.259053 0.253634 0.244495
          0.231612 0.262274 0.259278 0.251381 0.233357 0.205042 0.264234 0.261751 0.25573 0.244115 0.23222 0.266846
          0.265212 0.261737 0.2564 0.251607 0.269414 0.268414 0.266481 0.263939 0.261826 0.271528 0.270908 0.269778
          0.26841 0.267283 0.272997 0.272581 0.271844 0.270981 0.270256 0.273745 0.273416 0.27284 0.272172 0.2716
          0.262794 0.26135 0.258501 0.254384 0.249327 0.262767 0.261118 0.25778 0.252769 0.246275 0.262971 0.260987
          0.256756 0.24985 0.239783 0.263824 0.261624 0.256643 0.247426 0.230456 0.265592 0.263708 0.259655 0.253146
          0.244881 0.267927 0.266583 0.263886 0.260069 0.256136 0.270284 0.269406 0.267743 0.265601 0.263646 0.272267
          0.2717 0.27067 0.269417 0.268326 0.273663 0.273274 0.272583 0.271766 0.271057 0.274378 0.274068 0.273522
          0.272883 0.272321 0.263671 0.262272 0.259487 0.255407 0.250372 0.263685 0.26211 0.258887 0.253918 0.247243
          0.263942 0.262101 0.258151 0.251486 0.241035 0.264795 0.262818 0.258413 0.250301 0.234193 0.266446 0.264715
          0.261005 0.254928 0.246373 0.268633 0.267358 0.26479 0.261065 0.256938 0.270874 0.270023 0.2684 0.266268
          0.264245 0.272783 0.272229 0.271214 0.269963 0.268858 0.274137 0.273756 0.273076 0.272265 0.271556 0.274833
          0.27453 0.273994 0.273363 0.272805 0.264184 0.262776 0.259947 0.25575 0.250493 0.26419 0.262584 0.259233
          0.253855 0.24591 0.264416 0.262493 0.258197 0.250232 0.234247 0.265208 0.263075 0.258032 0.247894 0.228845
          0.266791 0.264871 0.26041 0.251844 0.236894 0.268945 0.26755 0.264574 0.259787 0.253824 0.271172 0.270263
          0.268471 0.265983 0.263543 0.273072 0.272494 0.271419 0.270063 0.268871 0.274418 0.274029 0.273331 0.272491
          0.271766 0.27511 0.274804 0.274263 0.273624 0.273065 0.264396 0.262969 0.260099 0.255879 0.250853 0.264379
          0.262722 0.259236 0.253695 0.246367 0.264551 0.26248 0.257682 0.248556 0.2331 0.265263 0.262796 0.256116
          0.238118 0.205037 0.26681 0.264526 0.258262 0.240446 0.205065 0.268994 0.267403 0.263692 0.256355 0.242498
          0.271254 0.270262 0.268217 0.265106 0.26156 0.273172 0.272563 0.271408 0.269902 0.268552 0.274527 0.274127
          0.273404 0.272527 0.271776 0.27522 0.274911 0.274361 0.273711 0.273148
        </DataArray>
        <DataArray type="Float32" Name="process rank" NumberOfComponents="1" format="ascii">
          2 2 2 2 2 2 2 2 2 2 2 2
          2 2 2 2 2 2 2 2 2 2 2 2
          2 2 2 2 2 2 2 2 2 2 2 2
          2 2 2 2 2 2 2 2 2 2 2 2
          2 2 2 2 2 2 2 2 2 2 2 2
          2 2 2 2 2 2 2 2 2 2 2 2
          2 2 2 2 2 2 2 2 2 2 2 2
          2 2 2 2 2 2 2 2 2 2 2 2
          2 2 2 2 2 2 2 2 2 2 2 2
          2 2 2 2 2 2 2 2 2 2 2 2
          2 2 2 2 2 2 2 2 2 2 2 2
          2 2 2 2 2 2 2 2 2 2 2 2
          2 2 2 2 2 2 2 2 2 2 2 2
          2 2 2 2 2 2 2 2 2 2 2 2
          2 2 2 2 2 2 2 2 2 2 2 2
          2 2 2 2 2 2 2 2 2 2 2 2
          2 2 2 2 2 2 2 2 2 2 2 2
          2 2 2 2 2 2 2 2 2 2 2 2
          2 2 2 2 2 2 2 2 2 2 2 2
          2 2 2 2 2 2 2 2 2 2 2 2
          2 2 2 2 2 2 2 2 2 2 2 2
          2 2 2 2 2 2 2 2 2 2 2 2
          2 2 2 2 2 2 2 2 2 2 2 2
          2 2 2 2 2 2 2 2 2 2 2 2
          2 2 2 2 2 2 2 2 2 2 2 2
          2 2 2 2 2 2 2 2 2 2 2 2
          2 2 2 2 2 2 2 2 2 2 2 2
          2 2 2 2 2 2 2 2 2 2 2 2
          2 2 2 2 2 2 2 2 2 2 2 2
          2 2 2 2 2 2 2 2 2 2 2 2
          2 2 2 2 2 2 2 2 2 2 2 2
          2 2 2 2 2 2 2 2 2 2 2 2
          2 2 2 2 2 2 2 2 2 2 2 2
          2 2 2 2 2 2 2 2 2 2 2 2
          2 2 2 2 2 2 2 2 2 2 2 2
          2 2 2 2 2 2 2 2 2 2 2 2
          2 2 2 2 2 2 2 2 2 2 2 2
          2 2 2 2 2 2 2 2 2 2 2 2
          2 2 2 2 2 2 2 2 2 2 2 2
          2 2 2 2 2 2 2 2 2 2 2 2
          2 2 2 2 2 2 2 2 2 2 2 2
          2 2 2 2 2 2 2 2
        </DataArray>
      </CellData>
      <Points>
        <DataArray type="Float32" Name="Coordinates" NumberOfComponents="3" format="ascii">
          -0.04 -0.04 -0.0789474 -0.032 -0.04 -0.0789474 -0.04 -0.032 -0.0789474 -0.032 -0.032 -0.0789474
          -0.04 -0.04 -0.0710526 -0.032 -0.04 -0.0710526 -0.04 -0.032 -0.0710526 -0.032 -0.032 -0.0710526
          -0.024 -0.04 -0.0789474 -0.024 -0.032 -0.0789474 -0.024 -0.04 -0.0710526 -0.024 -0.032 -0.0710526
          -0.016 -0.04 -0.0789474 -0.016 -0.032 -0.0789474 -0.016 -0.04 -0.0710526 -0.016 -0.032 -0.0710526
          -0.008 -0.04 -0.0789474 -0.008 -0.032 -0.0789474 -0.008 -0.04 -0.0710526 -0.008 -0.032 -0.0710526
          0 -0.04 -0.0789474 0 -0.032 -0.0789474 0 -0.04 -0.0710526 0 -0.032 -0.0710526
          -0.04 -0.024 -0.0789474 -0.032 -0.024 -0.0789474 -0.04 -0.024 -0.0710526 -0.032 -0.024 -0.0710526
          -0.024 -0.024 -0.0789474 -0.024 -0.024 -0.0710526 -0.016 -0.024 -0.0789474 -0.016 -0.024 -0.0710526
          -0.008 -0.024 -0.0789474 -0.008 -0.024 -0.0710526 0 -0.024 -0.0789474 0 -0.024 -0.0710526
          -0.04 -0.016 -0.0789474 -0.032 -0.016 -0.0789474 -0.04 -0.016 -0.0710526 -0.032 -0.016 -0.0710526
          -0.024 -0.016 -0.0789474 -0.024 -0.016 -0.0710526 -0.016 -0.016 -0.0789474 -0.016 -0.016 -0.0710526
          -0.008 -0.016 -0.0789474 -0.008 -0.016 -0.0710526 0 -0.016 -0.0789474 0 -0.016 -0.0710526
          -0.04 -0.008 -0.0789474 -0.032 -0.008 -0.0789474 -0.04 -0.008 -0.0710526 -0.032 -0.008 -0.0710526
          -0.024 -0.008 -0.0789474 -0.024 -0.008 -0.0710526 -0.016 -0.008 -0.0789474 -0.016 -0.008 -0.0710526
          -0.008 -0.008 -0.0789474 -0.008 -0.008 -0.0710526 0 -0.008 -0.0789474 0 -0.008 -0.0710526
          -0.04 0 -0.0789474 -0.032 0 -0.0789474 -0.04 0 -0.0710526 -0.032 0 -0.0710526
          -0.024 0 -0.0789474 -0.024 0 -0.0710526 -0.016 0 -0.0789474 -0.016 0 -0.0710526
          -0.008 0 -0.0789474 -0.008 0 -0.0710526 0 0 -0.0789474 0 0 -0.0710526
          -0.04 0.008 -0.0789474 -0.032 0.008 -0.0789474 -0.04 0.008 -0.0710526 -0.032 0.008 -0.0710526
          -0.024 0.008 -0.0789474 -0.024 0.008 -0.0710526 -0.016 0.008 -0.0789474 -0.016 0.008 -0.0710526
          -0.008 0.008 -0.0789474 -0.008 0.008 -0.0710526 0 0.008 -0.0789474 0 0.008 -0.0710526
          -0.04 0.016 -0.0789474 -0.032 0.016 -0.0789474 -0.04 0.016 -0.0710526 -0.032 0.016 -0.0710526
          -0.024 0.016 -0.0789474 -0.024 0.016 -0.0710526 -0.016 0.016 -0.0789474 -0.016 0.016 -0.0710526
          -0.008 0.016 -0.0789474 -0.008 0.016 -0.0710526 0 0.016 -0.0789474 0 0.016 -0.0710526
          -0.04 0.024 -0.0789474 -0.032 0.024 -0.0789474 -0.04 0.024 -0.0710526 -0.032 0.024 -0.0710526
          -0.024 0.024 -0.0789474 -0.024 0.024 -0.0710526 -0.016 0.024 -0.0789474 -0.016 0.024 -0.0710526
          -0.008 0.024 -0.0789474 -0.008 0.024 -0.0710526 0 0.024 -0.0789474 0 0.024 -0.0710526
          -0.04 0.032 -0.0789474 -0.032 0.032 -0.0789474 -0.04 0.032 -0.0710526 -0.032 0.032 -0.0710526
          -0.024 0.032 -0.0789474 -0.024 0.032 -0.0710526 -0.016 0.032 -0.0789474 -0.016 0.032 -0.0710526
          -0.008 0.032 -0.0789474 -0.008 0.032 -0.0710526 0 0.032 -0.0789474 0 0.032 -0.0710526
          -0.04 0.04 -0.0789474 -0.032 0.04 -0.0789474 -0.04 0.04 -0.0710526 -0.032 0.04 -0.0710526
          -0.024 0.04 -0.0789474 -0.024 0.04 -0.0710526 -0.016 0.04 -0.0789474 -0.016 0.04 -0.0710526
          -0.008 0.04 -0.0789474 -0.008 0.04 -0.0710526 0 0.04 -0.0789474 0 0.04 -0.0710526
          -0.04 -0.04 -0.0631579 -0.032 -0.04 -0.0631579 -0.04 -0.032 -0.0631579 -0.032 -0.032 -0.0631579
          -0.024 -0.04 -0.0631579 -0.024 -0.032 -0.0631579 -0.016 -0.04 -0.0631579 -0.016 -0.032 -0.0631579
          -0.008 -0.04 -0.0631579 -0.008 -0.032 -0.0631579 0 -0.04 -0.0631579 0 -0.032 -0.0631579
          -0.04 -0.024 -0.0631579 -0.032 -0.024 -0.0631579 -0.024 -0.024 -0.0631579 -0.016 -0.024 -0.0631579
          -0.008 -0.024 -0.0631579 0 -0.024 -0.0631579 -0.04 -0.016 -0.0631579 -0.032 -0.016 -0.0631579
          -0.024 -0.016 -0.0631579 -0.016 -0.016 -0.0631579 -0.008 -0.016 -0.0631579 0 -0.016 -0.0631579
          -0.04 -0.008 -0.0631579 -0.032 -0.008 -0.0631579 -0.024 -0.008 -0.0631579 -0.016 -0.008 -0.0631579
          -0.008 -0.008 -0.0631579 0 -0.008 -0.0631579 -0.04 0 -0.0631579 -0.032 0 -0.0631579
          -0.024 0 -0.0631579 -0.016 0 -0.0631579 -0.008 0 -0.0631579 0 0 -0.0631579
          -0.04 0.008 -0.0631579 -0.032 0.008 -0.0631579 -0.024 0.008 -0.0631579 -0.016 0.008 -0.0631579
          -0.008 0.008 -0.0631579 0 0.008 -0.0631579 -0.04 0.016 -0.0631579 -0.032 0.016 -0.0631579
          -0.024 0.016 -0.0631579 -0.016 0.016 -0.0631579 -0.008 0.016 -0.0631579 0 0.016 -0.0631579
          -0.04 0.024 -0.0631579 -0.032 0.024 -0.0631579 -0.024 0.024 -0.0631579 -0.016 0.024 -0.0631579
          -0.008 0.024 -0.0631579 0 0.024 -0.0631579 -0.04 0.032 -0.0631579 -0.032 0.032 -0.0631579
          -0.024 0.032 -0.0631579 -0.016 0.032 -0.0631579 -0.008 0.032 -0.0631579 0 0.032 -0.0631579
          -0.04 0.04 -0.0631579 -0.032 0.04 -0.0631579 -0.024 0.04 -0.0631579 -0.016 0.04 -0.0631579
          -0.008 0.04 -0.0631579 0 0.04 -0.0631579 -0.04 -0.04 -0.0552632 -0.032 -0.04 -0.0552632
          -0.04 -0.032 -0.0552632 -0.032 -0.032 -0.0552632 -0.024 -0.04 -0.0552632 -0.024 -0.032 -0.0552632
          -0.016 -0.04 -0.0552632 -0.016 -0.032 -0.0552632 -0.008 -0.04 -0.0552632 -0.008 -0.032 -0.0552632
          0 -0.04 -0.0552632 0 -0.032 -0.0552632 -0.04 -0.024 -0.0552632 -0.032 -0.024 -0.0552632
          -0.024 -0.024 -0.0552632 -0.016 -0.024 -0.0552632 -0.008 -0.024 -0.0552632 0 -0.024 -0.0552632
          -0.04 -0.016 -0.0552632 -0.032 -0.016 -0.0552632 -0.024 -0.016 -0.0552632 -0.016 -0.016 -0.0552632
          -0.008 -0.016 -0.0552632 0 -0.016 -0.0552632 -0.04 -0.008 -0.0552632 -0.032 -0.008 -0.0552632
          -0.024 -0.008 -0.0552632 -0.016 -0.008 -0.0552632 -0.008 -0.008 -0.0552632 0 -0.008 -0.0552632
          -0.04 0 -0.0552632 -0.032 0 -0.0552632 -0.024 0 -0.0552632 -0.016 0 -0.0552632
          -0.008 0 -0.0552632 0 0 -0.0552632 -0.04 0.008 -0.0552632 -0.032 0.008 -0.0552632
          -0.024 0.008 -0.0552632 -0.016 0.008 -0.0552632 -0.008 0.008 -0.0552632 0 0.008 -0.0552632
          -0.04 0.016 -0.0552632 -0.032 0.016 -0.0552632 -0.024 0.016 -0.0552632 -0.016 0.016 -0.0552632
          -0.008 0.016 -0.0552632 0 0.016 -0.0552632 -0.04 0.024 -0.0552632 -0.032 0.024 -0.0552632
          -0.024 0.024 -0.0552632 -0.016 0.024 -0.0552632 -0.008 0.024 -0.0552632 0 0.024 -0.0552632
          -0.04 0.032 -0.0552632 -0.032 0.032 -0.0552632 -0.024 0.032 -0.0552632 -0.016 0.032 -0.0552632
          -0.008 0.032 -0.0552632 0 0.032 -0.0552632 -0.04 0.04 -0.0552632 -0.032 0.04 -0.0552632
          -0.024 0.04 -0.0552632 -0.016 0.04 -0.0552632 -0.008 0.04 -0.0552632 0 0.04 -0.0552632
          -0.04 -0.04 -0.0473684 -0.032 -0.04 -0.0473684 -0.04 -0.032 -0.0473684 -0.032 -0.032 -0.0473684
          -0.024 -0.04 -0.0473684 -0.024 -0.032 -0.0473684 -0.016 -0.04 -0.0473684 -0.016 -0.032 -0.0473684
          -0.008 -0.04 -0.0473684 -0.008 -0.032 -0.0473684 0 -0.04 -0.0473684 0 -0.032 -0.0473684
          -0.04 -0.024 -0.0473684 -0.032 -0.024 -0.0473684 -0.024 -0.024 -0.0473684 -0.016 -0.024 -0.0473684
          -0.008 -0.024 -0.0473684 0 -0.024 -0.0473684 -0.04 -0.016 -0.0473684 -0.032 -0.016 -0.0473684
          -0.024 -0.016 -0.0473684 -0.016 -0.016 -0.0473684 -0.008 -0.016 -0.0473684 0 -0.016 -0.0473684
          -0.04 -0.008 -0.0473684 -0.032 -0.008 -0.0473684 -0.024 -0.008 -0.0473684 -0.016 -0.008 -0.0473684
          -0.008 -0.008 -0.0473684 0 -0.008 -0.0473684 -0.04 0 -0.0473684 -0.032 0 -0.0473684
          -0.024 0 -0.0473684 -0.016 0 -0.0473684 -0.008 0 -0.0473684 0 0 -0.0473684
          -0.04 0.008 -0.0473684 -0.032 0.008 -0.0473684 -0.024 0.008 -0.0473684 -0.016 0.008 -0.0473684
          -0.008 0.008 -0.0473684 0 0.008 -0.0473684 -0.04 0.016 -0.0473684 -0.032 0.016 -0.0473684
          -0.024 0.016 -0.0473684 -0.016 0.016 -0.0473684 -0.008 0.016 -0.0473684 0 0.016 -0.0473684
          -0.04 0.024 -0.0473684 -0.032 0.024 -0.0473684 -0.024 0.024 -0.0473684 -0.016 0.024 -0.0473684
          -0.008 0.024 -0.0473684 0 0.024 -0.0473684 -0.04 0.032 -0.0473684 -0.032 0.032 -0.0473684
          -0.024 0.032 -0.0473684 -0.016 0.032 -0.0473684 -0.008 0.032 -0.0473684 0 0.032 -0.0473684
          -0.04 0.04 -0.0473684 -0.032 0.04 -0.0473684 -0.024 0.04 -0.0473684 -0.016 0.04 -0.0473684
          -0.008 0.04 -0.0473684 0 0.04 -0.0473684 -0.04 -0.04 -0.0394737 -0.032 -0.04 -0.0394737
          -0.04 -0.032 -0.0394737 -0.032 -0.032 -0.0394737 -0.024 -0.04 -0.0394737 -0.024 -0.032 -0.0394737
          -0.016 -0.04 -0.0394737 -0.016 -0.032 -0.0394737 -0.008 -0.04 -0.0394737 -0.008 -0.032 -0.0394737
          0 -0.04 -0.0394737 0 -0.032 -0.0394737 -0.04 -0.024 -0.0394737 -0.032 -0.024 -0.0394737
          -0.024 -0.024 -0.0394737 -0.016 -0.024 -0.0394737 -0.008 -0.024 -0.0394737 0 -0.024 -0.0394737
          -0.04 -0.016 -0.0394737 -0.032 -0.016 -0.0394737 -0.024 -0.016 -0.0394737 -0.016 -0.016 -0.0394737
          -0.008 -0.016 -0.0394737 0 -0.016 -0.0394737 -0.04 -0.008 -0.0394737 -0.032 -0.008 -0.0394737
          -0.024 -0.008 -0.0394737 -0.016 -0.008 -0.0394737 -0.008 -0.008 -0.0394737 0 -0.008 -0.0394737
          -0.04 0 -0.0394737 -0.032 0 -0.0394737 -0.024 0 -0.0394737 -0.016 0 -0.0394737
          -0.008 0 -0.0394737 0 0 -0.0394737 -0.04 0.008 -0.0394737 -0.032 0.008 -0.0394737
          -0.024 0.008 -0.0394737 -0.016 0.008 -0.0394737 -0.008 0.008 -0.0394737 0 0.008 -0.0394737
          -0.04 0.016 -0.0394737 -0.032 0.016 -0.0394737 -0.024 0.016 -0.0394737 -0.016 0.016 -0.0394737
          -0.008 0.016 -0.0394737 0 0.016 -0.0394737 -0.04 0.024 -0.0394737 -0.032 0.024 -0.0394737
          -0.024 0.024 -0.0394737 -0.016 0.024 -0.0394737 -0.008 0.024 -0.0394737 0 0.024 -0.0394737
          -0.04 0.032 -0.0394737 -0.032 0.032 -0.0394737 -0.024 0.032 -0.0394737 -0.016 0.032 -0.0394737
          -0.008 0.032 -0.0394737 0 0.032 -0.0394737 -0.04 0.04 -0.0394737 -0.032 0.04 -0.0394737
          -0.024 0.04 -0.0394737 -0.016 0.04 -0.0394737 -0.008 0.04 -0.0394737 0 0.04 -0.0394737
          -0.04 -0.04 -0.0315789 -0.032 -0.04 -0.0315789 -0.04 -0.032 -0.0315789 -0.032 -0.032 -0.0315789
          -0.024 -0.04 -0.0315789 -0.024 -0.032 -0.0315789 -0.016 -0.04 -0.0315789 -0.016 -0.032 -0.0315789
          -0.008 -0.04 -0.0315789 -0.008 -0.032 -0.0315789 0 -0.04 -0.0315789 0 -0.032 -0.0315789
          -0.04 -0.024 -0.0315789 -0.032 -0.024 -0.0315789 -0.024 -0.024 -0.0315789 -0.016 -0.024 -0.0315789
          -0.008 -0.024 -0.0315789 0 -0.024 -0.0315789 -0.04 -0.016 -0.0315789 -0.032 -0.016 -0.0315789
          -0.024 -0.016 -0.0315789 -0.016 -0.016 -0.0315789 -0.008 -0.016 -0.0315789 0 -0.016 -0.0315789
          -0.04 -0.008 -0.0315789 -0.032 -0.008 -0.0315789 -0.024 -0.008 -0.0315789 -0.016 -0.008 -0.0315789
          -0.008 -0.008 -0.0315789 0 -0.008 -0.0315789 -0.04 0 -0.0315789 -0.032 0 -0.0315789
          -0.024 0 -0.0315789 -0.016 0 -0.0315789 -0.008 0 -0.0315789 0 0 -0.0315789
          -0.04 0.008 -0.0315789 -0.032 0.008 -0.0315789 -0.024 0.008 -0.0315789 -0.016 0.008 -0.0315789
          -0.008 0.008 -0.0315789 0 0.008 -0.0315789 -0.04 0.016 -0.0315789 -0.032 0.016 -0.0315789
          -0.024 0.016 -0.0315789 -0.016 0.016 -0.0315789 -0.008 0.016 -0.0315789 0 0.016 -0.0315789
          -0.04 0.024 -0.0315789 -0.032 0.024 -0.0315789 -0.024 0.024 -0.0315789 -0.016 0.024 -0.0315789
          -0.008 0.024 -0.0315789 0 0.024 -0.0315789 -0.04 0.032 -0.0315789 -0.032 0.032 -0.0315789
          -0.024 0.032 -0.0315789 -0.016 0.032 -0.0315789 -0.008 0.032 -0.0315789 0 0.032 -0.0315789
          -0.04 0.04 -0.0315789 -0.032 0.04 -0.0315789 -0.024 0.04 -0.0315789 -0.016 0.04 -0.0315789
          -0.008 0.04 -0.0315789 0 0.04 -0.0315789 -0.04 -0.04 -0.0236842 -0.032 -0.04 -0.0236842
          -0.04 -0.032 -0.0236842 -0.032 -0.032 -0.0236842 -0.024 -0.04 -0.0236842 -0.024 -0.032 -0.0236842
          -0.016 -0.04 -0.0236842 -0.016 -0.032 -0.0236842 -0.008 -0.04 -0.0236842 -0.008 -0.032 -0.0236842
          0 -0.04 -0.0236842 0 -0.032 -0.0236842 -0.04 -0.024 -0.0236842 -0.032 -0.024 -0.0236842
          -0.024 -0.024 -0.0236842 -0.016 -0.024 -0.0236842 -0.008 -0.024 -0.0236842 0 -0.024 -0.0236842
          -0.04 -0.016 -0.0236842 -0.032 -0.016 -0.0236842 -0.024 -0.016 -0.0236842 -0.016 -0.016 -0.0236842
          -0.008 -0.016 -0.0236842 0 -0.016 -0.0236842 -0.04 -0.008 -0.0236842 -0.032 -0.008 -0.0236842
          -0.024 -0.008 -0.0236842 -0.016 -0.008 -0.0236842 -0.008 -0.008 -0.0236842 0 -0.008 -0.0236842
          -0.04 0 -0.0236842 -0.032 0 -0.0236842 -0.024 0 -0.0236842 -0.016 0 -0.0236842
          -0.008 0 -0.0236842 0 0 -0.0236842 -0.04 0.008 -0.0236842 -0.032 0.008 -0.0236842
          -0.024 0.008 -0.0236842 -0.016 0.008 -0.0236842 -0.008 0.008 -0.0236842 0 0.008 -0.0236842
          -0.04 0.016 -0.0236842 -0.032 0.016 -0.0236842 -0.024 0.016 -0.0236842 -0.016 0.016 -0.0236842
          -0.008 0.016 -0.0236842 0 0.016 -0.0236842 -0.04 0.024 -0.0236842 -0.032 0.024 -0.0236842
          -0.024 0.024 -0.0236842 -0.016 0.024 -0.0236842 -0.008 0.024 -0.0236842 0 0.024 -0.0236842
          -0.04 0.032 -0.0236842 -0.032 0.032 -0.0236842 -0.024 0.032 -0.0236842 -0.016 0.032 -0.0236842
          -0.008 0.032 -0.0236842 0 0.032 -0.0236842 -0.04 0.04 -0.0236842 -0.032 0.04 -0.0236842
          -0.024 0.04 -0.0236842 -0.016 0.04 -0.0236842 -0.008 0.04 -0.0236842 0 0.04 -0.0236842
          -0.04 -0.04 -0.0157895 -0.032 -0.04 -0.0157895 -0.04 -0.032 -0.0157895 -0.032 -0.032 -0.0157895
          -0.024 -0.04 -0.0157895 -0.024 -0.032 -0.0157895 -0.016 -0.04 -0.0157895 -0.016 -0.032 -0.0157895
          -0.008 -0.04 -0.0157895 -0.008 -0.032 -0.0157895 0 -0.04 -0.0157895 0 -0.032 -0.0157895
          -0.04 -0.024 -0.0157895 -0.032 -0.024 -0.0157895 -0.024 -0.024 -0.0157895 -0.016 -0.024 -0.0157895
          -0.008 -0.024 -0.0157895 0 -0.024 -0.0157895 -0.04 -0.016 -0.0157895 -0.032 -0.016 -0.0157895
          -0.024 -0.016 -0.0157895 -0.016 -0.016 -0.0157895 -0.008 -0.016 -0.0157895 0 -0.016 -0.0157895
          -0.04 -0.008 -0.0157895 -0.032 -0.008 -0.0157895 -0.024 -0.008 -0.0157895 -0.016 -0.008 -0.0157895
          -0.008 -0.008 -0.0157895 0 -0.008 -0.0157895 -0.04 0 -0.0157895 -0.032 0 -0.0157895
          -0.024 0 -0.0157895 -0.016 0 -0.0157895 -0.008 0 -0.0157895 0 0 -0.0157895
          -0.04 0.008 -0.0157895 -0.032 0.008 -0.0157895 -0.024 0.008 -0.0157895 -0.016 0.008 -0.0157895
          -0.008 0.008 -0.0157895 0 0.008 -0.0157895 -0.04 0.016 -0.0157895 -0.032 0.016 -0.0157895
          -0.024 0.016 -0.0157895 -0.016 0.016 -0.0157895 -0.008 0.016 -0.0157895 0 0.016 -0.0157895
          -0.04 0.024 -0.0157895 -0.032 0.024 -0.0157895 -0.024 0.024 -0.0157895 -0.016 0.024 -0.0157895
          -0.008 0.024 -0.0157895 0 0.024 -0.0157895 -0.04 0.032 -0.0157895 -0.032 0.032 -0.0157895
          -0.024 0.032 -0.0157895 -0.016 0.032 -0.0157895 -0.008 0.032 -0.0157895 0 0.032 -0.0157895
          -0.04 0.04 -0.0157895 -0.032 0.04 -0.0157895 -0.024 0.04 -0.0157895 -0.016 0.04 -0.0157895
          -0.008 0.04 -0.0157895 0 0.04 -0.0157895 -0.04 -0.04 -0.00789474 -0.032 -0.04 -0.00789474
          -0.04 -0.032 -0.00789474 -0.032 -0.032 -0.00789474 -0.024 -0.04 -0.00789474 -0.024 -0.032 -0.00789474
          -0.016 -0.04 -0.00789474 -0.016 -0.032 -0.00789474 -0.008 -0.04 -0.00789474 -0.008 -0.032 -0.00789474
          0 -0.04 -0.00789474 0 -0.032 -0.00789474 -0.04 -0.024 -0.00789474 -0.032 -0.024 -0.00789474
          -0.024 -0.024 -0.00789474 -0.016 -0.024 -0.00789474 -0.008 -0.024 -0.00789474 0 -0.024 -0.00789474
          -0.04 -0.016 -0.00789474 -0.032 -0.016 -0.00789474 -0.024 -0.016 -0.00789474 -0.016 -0.016 -0.00789474
          -0.008 -0.016 -0.00789474 0 -0.016 -0.00789474 -0.04 -0.008 -0.00789474 -0.032 -0.008 -0.00789474
          -0.024 -0.008 -0.00789474 -0.016 -0.008 -0.00789474 -0.008 -0.008 -0.00789474 0 -0.008 -0.00789474
          -0.04 0 -0.00789474 -0.032 0 -0.00789474 -0.024 0 -0.00789474 -0.016 0 -0.00789474
          -0.008 0 -0.00789474 0 0 -0.00789474 -0.04 0.008 -0.00789474 -0.032 0.008 -0.00789474
          -0.024 0.008 -0.00789474 -0.016 0.008 -0.00789474 -0.008 0.008 -0.00789474 0 0.008 -0.00789474
          -0.04 0.016 -0.00789474 -0.032 0.016 -0.00789474 -0.024 0.016 -0.00789474 -0.016 0.016 -0.00789474
          -0.008 0.016 -0.00789474 0 0.016 -0.00789474 -0.04 0.024 -0.00789474 -0.032 0.024 -0.00789474
          -0.024 0.024 -0.00789474 -0.016 0.024 -0.00789474 -0.008 0.024 -0.00789474 0 0.024 -0.00789474
          -0.04 0.032 -0.00789474 -0.032 0.032 -0.00789474 -0.024 0.032 -0.00789474 -0.016 0.032 -0.00789474
          -0.008 0.032 -0.00789474 0 0.032 -0.00789474 -0.04 0.04 -0.00789474 -0.032 0.04 -0.00789474
          -0.024 0.04 -0.00789474 -0.016 0.04 -0.00789474 -0.008 0.04 -0.00789474 0 0.04 -0.00789474
          -0.04 -0.04 3.46945e-18 -0.032 -0.04 3.46945e-18 -0.04 -0.032 3.46945e-18 -0.032 -0.032 3.46945e-18
          -0.024 -0.04 3.46945e-18 -0.024 -0.032 3.46945e-18 -0.016 -0.04 3.46945e-18 -0.016 -0.032 3.46945e-18
          -0.008 -0.04 3.46945e-18 -0.008 -0.032 3.46945e-18 0 -0.04 3.46945e-18 0 -0.032 3.46945e-18
          -0.04 -0.024 3.46945e-18 -0.032 -0.024 3.46945e-18 -0.024 -0.024 3.46945e-18 -0.016 -0.024 3.46945e-18
          -0.008 -0.024 3.46945e-18 0 -0.024 3.46945e-18 -0.04 -0.016 3.46945e-18 -0.032 -0.016 3.46945e-18
          -0.024 -0.016 3.46945e-18 -0.016 -0.016 3.46945e-18 -0.008 -0.016 3.46945e-18 0 -0.016 3.46945e-18
          -0.04 -0.008 3.46945e-18 -0.032 -0.008 3.46945e-18 -0.024 -0.008 3.46945e-18 -0.016 -0.008 3.46945e-18
          -0.008 -0.008 3.46945e-18 0 -0.008 3.46945e-18 -0.04 0 3.46945e-18 -0.032 0 3.46945e-18
          -0.024 0 3.46945e-18 -0.016 0 3.46945e-18 -0.008 0 3.46945e-18 0 0 3.46945e-18
          -0.04 0.008 3.46945e-18 -0.032 0.008 3.46945e-18 -0.024 0.008 3.46945e-18 -0.016 0.008 3.46945e-18
          -0.008 0.008 3.46945e-18 0 0.008 3.46945e-18 -0.04 0.016 3.46945e-18 -0.032 0.016 3.46945e-18
          -0.024 0.016 3.46945e-18 -0.016 0.016 3.46945e-18 -0.008 0.016 3.46945e-18 0 0.016 3.46945e-18
          -0.04 0.024 3.46945e-18 -0.032 0.024 3.46945e-18 -0.024 0.024 3.46945e-18 -0.016 0.024 3.46945e-18