<?xml version="1.0"?>
<VTKFile type="UnstructuredGrid" version="0.1" byte_order="LittleEndian">
  <UnstructuredGrid>
    <Piece NumberOfCells="450" NumberOfPoints="660">
      <CellData Scalars="p (Pa)">
        <DataArray type="Float32" Name="p (Pa)" NumberOfComponents="1" format="ascii">
          8351.66 8002 7880.01 7885.94 7918.93 8268.54 7919.79 7810.62 7829.9 7870.92 8212.12 7864.53
          7771.16 7806.12 7856.76 8361.25 8013.81 7921.81 7956.98 8008.77 8853.46 8506.64 8392.85 8404.35
          8443.57 9628.28 9304.29 9175.48 9159.86 9180.49 10541.3 10256.7 10129.8 10098.5 10104.3 11423.8
          11177.7 11060.4 11023.4 11020.5 12113.6 11895.4 11787 11748.4 11741.2 12489.6 12285.7 12182
          12143.1 12134.3 6525.6 6192.66 6150.53 6242.17 6327.5 6302.22 5982.09 5975.73 6099.03 6202.42
          6024.05 5725.61 5770.03 5934.88 6062.7 6018.86 5732.97 5791.75 5964.36 6101.61 6629.39 6305.08
          6288.28 6402.12 6517.24 7639.92 7327.58 7256.4 7304.61 7379.78 8820.44 8555.51 8473.83 8487.82
          8529.81 9959.14 9735.79 9658.5 9658.42 9680.91 10844.6 10647.3 10573.9 10567.2 10579.9 11324.5
          11139.3 11067.4 11057.5 11066.1 2634.94 2378.97 2559.66 2871.47 3086.85 1973.3 1791.12 2094.01
          2498.26 2763.61 913.855 888.472 1396.68 1938.66 2282.09 212.894 361.606 982.271 1576.34 1974.25
          1379.21 1221.99 1504.76 1905.28 2271.42 3135.44 2915.62 2996.95 3192.71 3445.17 5043.87 4887.84
          4931.06 5049.13 5197 6861.06 6734.26 6768.65 6858.16 6947.45 8248.7 8125.19 8146.22 8217.62
          8278.97 8988.09 8862.43 8873 8933.71 8983.64 -4040.73 -4023.57 -3314.46 -2534.94 -2055.6 -5966.65
          -5590.93 -4465.41 -3417.73 -2799.92 -9858.94 -8455.02 -6464.72 -4952.3 -4077.51 -14711.3 -11139.1 -8318.43
          -6516.63 -5349.72 -9852.18 -9023.38 -7992.12 -6907.71 -5613.46 -5630.11 -5359.5 -5010.42 -4663.31 -3755.66
          -1926.07 -1578.93 -1250.52 -982.834 -522.902 1523.71 1751.82 2053.84 2312.06 2559.32 4039.87 4138.93
          4374.09 4599.59 4761.05 5329.02 5361.44 5549.55 5748.23 5878.02 -14779.7 -13940.6 -12075.7 -10388.9
          -9420.9 -20364.6 -17927.4 -14721 -12307 -10975.8 -36370.9 -26952.6 -20089.9 -16161.8 -13992.6 -86157
          -40581.2 -27167.6 -21697 -17942 -37791.1 -31098.7 -29632.2 -27122.4 -20728.3 -23461.5 -20814.2 -20691.5
          -21768.1 -17207.5 -15122.6 -12502.5 -11612.4 -11487 -9876.71 -7336.05 -5879.9 -4970.25 -4463.67 -3817.29
          -2229.74 -1518.51 -833.379 -335.472 22.9196 186.973 593.271 1128.57 1570.26 1840.73 -31345.8 -28437.1
          -24331.7 -21063 -19273 -46985.4 -37785.9 -29840.1 -24823.8 -22172.7 -125064 -65962.2 -43322.4 -33806.3
          -28563.8 -1.17213e+06 -155517 -71193.9 -53618.7 -39594.2 -130360 -85224.4 -112836 -109392 -54068.2 -64421.8
          -50325.8 -56896.5 -85950.2 -45576.2 -43875.2 -30607.3 -28939.2 -31982.6 -24871.3 -22225.1 -16799.1 -14611.9
          -13969.2 -12222.9 -10997.9 -8797.64 -7262.35 -6343.14 -5614.77 -6390.68 -5223.09 -4089.18 -3267.88 -2774.75
          -54612.9 -47987 -40369.8 -34686.6 -31655.1 -89078.2 -66976.7 -50160.5 -40929.6 -36189.7 -253029 -155057
          -80046.9 -59021.5 -47332.3 -1.1891e+06 -1.18245e+06 -197018 -134459 -72689.9 -250478 -228717 -1.06154e+06 -1.09031e+06
          -141503 -165251 -102134 -158938 -819284 -112846 -123624 -57358.9 -54988.1 -82397 -44982.8 -45968.1
          -30045.8 -25521.9 -25317.9 -20956.6 -21655.5 -16684.6 -13840.1 -12345.3 -11058.8 -13580.8 -11236.2 -9276.83
          -7958.95 -7182.33 -82687.3 -71776.6 -60556.7 -51418.1 -46578.2 -160399 -99315.6 -73148.4 -58772.4 -51826.8
          -999266 -201076 -110123 -77901.6 -63876.6 -1.19013e+06 -403066 -228869 -123263 -84941.4 -395327 -336878
          -1.18874e+06 -234081 -107722 -258515 -146704 -176500 -140225 -80135.4 -162985 -75614.3 -63108 -56676.2
          -44166.4 -61350.6 -39261 -31454.9 -27666.5 -24250.1 -29463.3 -22496.2 -18350 -15912.5 -14432.7 -19114
          -15829.1 -13138 -11323.7 -10339.6 -107831 -101493 -91669.3 -74347.5 -65507.1 -200069 -136064 -103341
          -80916.7 -70218.7 -1.20764e+06 -283991 -147337 -98545.4 -80078.2 -1.19318e+06 -1.19679e+06 -278727 -128419 -91121.1
          -1.2005e+06 -1.19959e+06 -1.18398e+06 -173215 -91649 -361246 -204050 -160283 -87846.9 -64402.3 -171550 -82206.9
          -60910.7 -47247.4 -39840 -63538.6 -41819.2 -32494.1 -27194.8 -24284 -31456.2 -24560.2 -20021.1 -17168
          -15664.9 -21099.6 -17776.1 -14902 -12899.8 -11850
        </DataArray>
        <DataArray type="Float32" Name="saturation" NumberOfComponents="1" format="ascii">
          0.278643 0.278432 0.278359 0.278363 0.278382 0.278593 0.278383 0.278318 0.278329 0.278354 0.278559 0.27835
          0.278294 0.278315 0.278345 0.278649 0.278439 0.278384 0.278405 0.278436 0.278948 0.278737 0.278668 0.278675
          0.278699 0.279423 0.279224 0.279144 0.279135 0.279148 0.279992 0.279814 0.279735 0.279715 0.279719 0.280551
          0.280394 0.28032 0.280296 0.280294 0.280994 0.280853 0.280783 0.280759 0.280754 0.281237 0.281105 0.281038
          0.281013 0.281007 0.277557 0.277362 0.277338 0.277391 0.277441 0.277426 0.27724 0.277236 0.277308 0.277368
          0.277264 0.277091 0.277117 0.277212 0.277287 0.277261 0.277096 0.27713 0.27723 0.277309 0.277617 0.277428
          0.277418 0.277484 0.277552 0.278216 0.27803 0.277987 0.278016 0.278061 0.278928 0.278766 0.278717 0.278725
          0.278751 0.279628 0.27949 0.279442 0.279442 0.279456 0.280183 0.280059 0.280013 0.280008 0.280016 0.280487
          0.28037 0.280324 0.280318 0.280323 0.275351 0.275211 0.27531 0.275481 0.2756 0.27499 0.274891 0.275055
          0.275276 0.275422 0.27442 0.274406 0.274678 0.274971 0.275158 0.274048 0.274126 0.274456 0.274775 0.27499
          0.274669 0.274584 0.274736 0.274953 0.275152 0.275627 0.275505 0.27555 0.275658 0.275799 0.2767 0.276611
          0.276635 0.276703 0.276787 0.277754 0.277679 0.277699 0.277752 0.277805 0.278581 0.278506 0.278519 0.278562
          0.278599 0.27903 0.278953 0.27896 0.278997 0.279027 0.271876 0.271885 0.272237 0.272629 0.272872 0.270939
          0.27112 0.271667 0.272185 0.272495 0.269126 0.269768 0.270701 0.271429 0.271858 0.267004 0.268552 0.269831
          0.270677 0.271236 0.269129 0.269506 0.269983 0.270491 0.271109 0.271101 0.271232 0.271401 0.27157 0.272017
          0.272938 0.273115 0.273284 0.273422 0.273661 0.274747 0.27487 0.275034 0.275174 0.27531 0.276131 0.276187
          0.276319 0.276447 0.276539 0.276863 0.276882 0.27699 0.277104 0.277179 0.266975 0.267331 0.268138 0.268887
          0.269325 0.264705 0.265674 0.267 0.268037 0.268624 0.259038 0.262234 0.264813 0.266397 0.267309 0.246619
          0.25772 0.262157 0.264188 0.265668 0.258586 0.260782 0.261287 0.262173 0.264563 0.263517 0.264529 0.264577
          0.264161 0.265967 0.26683 0.267952 0.268342 0.268397 0.269118 0.270289 0.270981 0.271421 0.271668 0.271987
          0.272783 0.273146 0.2735 0.273759 0.273947 0.274034 0.274249 0.274534 0.274772 0.274918 0.260698 0.261706
          0.263192 0.264433 0.265135 0.255832 0.258588 0.261215 0.26301 0.264006 0.240105 0.250935 0.256896 0.259872
          0.261661 0.205173 0.236144 0.249739 0.254011 0.258023 0.239356 0.246802 0.241946 0.242496 0.253892 0.251299
          0.254899 0.253157 0.24666 0.256236 0.256732 0.26095 0.261529 0.260482 0.262992 0.263986 0.266134 0.267046
          0.267319 0.268074 0.268614 0.26961 0.270324 0.270759 0.271108 0.270737 0.271298 0.271852 0.27226 0.272508
          0.253749 0.255549 0.257785 0.259583 0.260593 0.246057 0.250698 0.254944 0.257614 0.259096 0.227315 0.236198
          0.247843 0.252618 0.255734 0.205022 0.205081 0.231821 0.238796 0.249408 0.227495 0.22912 0.206246 0.205951
          0.237868 0.235033 0.243702 0.235746 0.209289 0.241945 0.240313 0.253038 0.25365 0.247365 0.256408 0.256123
          0.261144 0.262753 0.262828 0.264474 0.264204 0.266181 0.267374 0.26802 0.268587 0.267485 0.268508 0.26939
          0.269998 0.270362 0.247306 0.24961 0.252236 0.254601 0.255948 0.235579 0.244189 0.249307 0.25268 0.25449
          0.206925 0.23145 0.242378 0.248289 0.251429 0.205013 0.219417 0.229108 0.240366 0.246858 0.219728 0.222363
          0.205025 0.228704 0.242767 0.226935 0.23721 0.233828 0.238033 0.247825 0.235286 0.248773 0.251613 0.253213
          0.256647 0.25204 0.258126 0.260661 0.261979 0.263223 0.261346 0.263882 0.265504 0.2665 0.267122 0.265198
          0.266535 0.267676 0.26847 0.268909 0.242749 0.243812 0.245569 0.249046 0.251042 0.231541 0.23858 0.243497
          0.247665 0.249958 0.20486 0.225286 0.237131 0.244325 0.247837 0.204986 0.204954 0.225612 0.239628 0.245671
          0.204922 0.20493 0.205067 0.234172 0.245573 0.2212 0.231183 0.235592 0.246292 0.251303 0.234349 0.247403
          0.252148 0.255758 0.257947 0.25151 0.257345 0.260309 0.262147 0.26321 0.26066 0.263107 0.26484 0.265983
          0.266603 0.264419 0.265736 0.266923 0.267779 0.268237
        </DataArray>
        <DataArray type="Float32" Name="process rank" NumberOfComponents="1" format="ascii">
          1 1 1 1 1 1 1 1 1 1 1 1
          1 1 1 1 1 1 1 1 1 1 1 1
          1 1 1 1 1 1 1 1 1 1 1 1
          1 1 1 1 1 1 1 1 1 1 1 1
          1 1 1 1 1 1 1 1 1 1 1 1
          1 1 1 1 1 1 1 1 1 1 1 1
          1 1 1 1 1 1 1 1 1 1 1 1
          1 1 1 1 1 1 1 1 1 1 1 1
          1 1 1 1 1 1 1 1 1 1 1 1
          1 1 1 1 1 1 1 1 1 1 1 1
          1 1 1 1 1 1 1 1 1 1 1 1
          1 1 1 1 1 1 1 1 1 1 1 1
          1 1 1 1 1 1 1 1 1 1 1 1
          1 1 1 1 1 1 1 1 1 1 1 1
          1 1 1 1 1 1 1 1 1 1 1 1
          1 1 1 1 1 1 1 1 1 1 1 1
          1 1 1 1 1 1 1 1 1 1 1 1
          1 1 1 1 1 1 1 1 1 1 1 1
          1 1 1 1 1 1 1 1 1 1 1 1
          1 1 1 1 1 1 1 1 1 1 1 1
          1 1 1 1 1 1 1 1 1 1 1 1
          1 1 1 1 1 1 1 1 1 1 1 1
          1 1 1 1 1 1 1 1 1 1 1 1
          1 1 1 1 1 1 1 1 1 1 1 1
          1 1 1 1 1 1 1 1 1 1 1 1
          1 1 1 1 1 1 1 1 1 1 1 1
          1 1 1 1 1 1 1 1 1 1 1 1
          1 1 1 1 1 1 1 1 1 1 1 1
          1 1 1 1 1 1 1 1 1 1 1 1
          1 1 1 1 1 1 1 1 1 1 1 1
          1 1 1 1 1 1 1 1 1 1 1 1
          1 1 1 1 1 1 1 1 1 1 1 1
          1 1 1 1 1 1 1 1 1 1 1 1
          1 1 1 1 1 1 1 1 1 1 1 1
          1 1 1 1 1 1 1 1 1 1 1 1
          1 1 1 1 1 1 1 1 1 1 1 1
          1 1 1 1 1 1 1 1 1 1 1 1
          1 1 1 1 1 1
        </DataArray>
      </CellData>
      <Points>
        <DataArray type="Float32" Name="Coordinates" NumberOfComponents="3" format="ascii">
          0 -0.04 -0.15 0.008 -0.04 -0.15 0 -0.032 -0.15 0.008 -0.032 -0.15
          0 -0.04 -0.142105 0.008 -0.04 -0.142105 0 -0.032 -0.142105 0.008 -0.032 -0.142105
          0.016 -0.04 -0.15 0.016 -0.032 -0.15 0.016 -0.04 -0.142105 0.016 -0.032 -0.142105
          0.024 -0.04 -0.15 0.024 -0.032 -0.15 0.024 -0.04 -0.142105 0.024 -0.032 -0.142105
          0.032 -0.04 -0.15 0.032 -0.032 -0.15 0.032 -0.04 -0.142105 0.032 -0.032 -0.142105
          0.04 -0.04 -0.15 0.04 -0.032 -0.15 0.04 -0.04 -0.142105 0.04 -0.032 -0.142105
          0 -0.024 -0.15 0.008 -0.024 -0.15 0 -0.024 -0.142105 0.008 -0.024 -0.142105
          0.016 -0.024 -0.15 0.016 -0.024 -0.142105 0.024 -0.024 -0.15 0.024 -0.024 -0.142105
          0.032 -0.024 -0.15 0.032 -0.024 -0.142105 0.04 -0.024 -0.15 0.04 -0.024 -0.142105
          0 -0.016 -0.15 0.008 -0.016 -0.15 0 -0.016 -0.142105 0.008 -0.016 -0.142105
          0.016 -0.016 -0.15 0.016 -0.016 -0.142105 0.024 -0.016 -0.15 0.024 -0.016 -0.142105
          0.032 -0.016 -0.15 0.032 -0.016 -0.142105 0.04 -0.016 -0.15 0.04 -0.016 -0.142105
          0 -0.008 -0.15 0.008 -0.008 -0.15 0 -0.008 -0.142105 0.008 -0.008 -0.142105
          0.016 -0.008 -0.15 0.016 -0.008 -0.142105 0.024 -0.008 -0.15 0.024 -0.008 -0.142105
          0.032 -0.008 -0.15 0.032 -0.008 -0.142105 0.04 -0.008 -0.15 0.04 -0.008 -0.142105
          0 0 -0.15 0.008 0 -0.15 0 0 -0.142105 0.008 0 -0.142105
          0.016 0 -0.15 0.016 0 -0.142105 0.024 0 -0.15 0.024 0 -0.142105
          0.032 0 -0.15 0.032 0 -0.142105 0.04 0 -0.15 0.04 0 -0.142105
          0 0.008 -0.15 0.008 0.008 -0.15 0 0.008 -0.142105 0.008 0.008 -0.142105
          0.016 0.008 -0.15 0.016 0.008 -0.142105 0.024 0.008 -0.15 0.024 0.008 -0.142105
          0.032 0.008 -0.15 0.032 0.008 -0.142105 0.04 0.008 -0.15 0.04 0.008 -0.142105
          0 0.016 -0.15 0.008 0.016 -0.15 0 0.016 -0.142105 0.008 0.016 -0.142105
          0.016 0.016 -0.15 0.016 0.016 -0.142105 0.024 0.016 -0.15 0.024 0.016 -0.142105
          0.032 0.016 -0.15 0.032 0.016 -0.142105 0.04 0.016 -0.15 0.04 0.016 -0.142105
          0 0.024 -0.15 0.008 0.024 -0.15 0 0.024 -0.142105 0.008 0.024 -0.142105
          0.016 0.024 -0.15 0.016 0.024 -0.142105 0.024 0.024 -0.15 0.024 0.024 -0.142105
          0.032 0.024 -0.15 0.032 0.024 -0.142105 0.04 0.024 -0.15 0.04 0.024 -0.142105
          0 0.032 -0.15 0.008 0.032 -0.15 0 0.032 -0.142105 0.008 0.032 -0.142105
          0.016 0.032 -0.15 0.016 0.032 -0.142105 0.024 0.032 -0.15 0.024 0.032 -0.142105
          0.032 0.032 -0.15 0.032 0.032 -0.142105 0.04 0.032 -0.15 0.04 0.032 -0.142105
          0 0.04 -0.15 0.008 0.04 -0.15 0 0.04 -0.142105 0.008 0.04 -0.142105
          0.016 0.04 -0.15 0.016 0.04 -0.142105 0.024 0.04 -0.15 0.024 0.04 -0.142105
          0.032 0.04 -0.15 0.032 0.04 -0.142105 0.04 0.04 -0.15 0.04 0.04 -0.142105
          0 -0.04 -0.134211 0.008 -0.04 -0.134211 0 -0.032 -0.134211 0.008 -0.032 -0.134211
          0.016 -0.04 -0.134211 0.016 -0.032 -0.134211 0.024 -0.04 -0.134211 0.024 -0.032 -0.134211
          0.032 -0.04 -0.134211 0.032 -0.032 -0.134211 0.04 -0.04 -0.134211 0.04 -0.032 -0.134211
          0 -0.024 -0.134211 0.008 -0.024 -0.134211 0.016 -0.024 -0.134211 0.024 -0.024 -0.134211
          0.032 -0.024 -0.134211 0.04 -0.024 -0.134211 0 -0.016 -0.134211 0.008 -0.016 -0.134211
          0.016 -0.016 -0.134211 0.024 -0.016 -0.134211 0.032 -0.016 -0.134211 0.04 -0.016 -0.134211
          0 -0.008 -0.134211 0.008 -0.008 -0.134211 0.016 -0.008 -0.134211 0.024 -0.008 -0.134211
          0.032 -0.008 -0.134211 0.04 -0.008 -0.134211 0 0 -0.134211 0.008 0 -0.134211
          0.016 0 -0.134211 0.024 0 -0.134211 0.032 0 -0.134211 0.04 0 -0.134211
          0 0.008 -0.134211 0.008 0.008 -0.134211 0.016 0.008 -0.134211 0.024 0.008 -0.134211
          0.032 0.008 -0.134211 0.04 0.008 -0.134211 0 0.016 -0.134211 0.008 0.016 -0.134211
          0.016 0.016 -0.134211 0.024 0.016 -0.134211 0.032 0.016 -0.134211 0.04 0.016 -0.134211
          0 0.024 -0.134211 0.008 0.024 -0.134211 0.016 0.024 -0.134211 0.024 0.024 -0.134211
          0.032 0.024 -0.134211 0.04 0.024 -0.134211 0 0.032 -0.134211 0.008 0.032 -0.134211
          0.016 0.032 -0.134211 0.024 0.032 -0.134211 0.032 0.032 -0.134211 0.04 0.032 -0.134211
          0 0.04 -0.134211 0.008 0.04 -0.134211 0.016 0.04 -0.134211 0.024 0.04 -0.134211
          0.032 0.04 -0.134211 0.04 0.04 -0.134211 0 -0.04 -0.126316 0.008 -0.04 -0.126316
          0 -0.032 -0.126316 0.008 -0.032 -0.126316 0.016 -0.04 -0.126316 0.016 -0.032 -0.126316
          0.024 -0.04 -0.126316 0.024 -0.032 -0.126316 0.032 -0.04 -0.126316 0.032 -0.032 -0.126316
          0.04 -0.04 -0.126316 0.04 -0.032 -0.126316 0 -0.024 -0.126316 0.008 -0.024 -0.126316
          0.016 -0.024 -0.126316 0.024 -0.024 -0.126316 0.032 -0.024 -0.126316 0.04 -0.024 -0.126316
          0 -0.016 -0.126316 0.008 -0.016 -0.126316 0.016 -0.016 -0.126316 0.024 -0.016 -0.126316
          0.032 -0.016 -0.126316 0.04 -0.016 -0.126316 0 -0.008 -0.126316 0.008 -0.008 -0.126316
          0.016 -0.008 -0.126316 0.024 -0.008 -0.126316 0.032 -0.008 -0.126316 0.04 -0.008 -0.126316
          0 0 -0.126316 0.008 0 -0.126316 0.016 0 -0.126316 0.024 0 -0.126316
          0.032 0 -0.126316 0.04 0 -0.126316 0 0.008 -0.126316 0.008 0.008 -0.126316
          0.016 0.008 -0.126316 0.024 0.008 -0.126316 0.032 0.008 -0.126316 0.04 0.008 -0.126316
          0 0.016 -0.126316 0.008 0.016 -0.126316 0.016 0.016 -0.126316 0.024 0.016 -0.126316
          0.032 0.016 -0.126316 0.04 0.016 -0.126316 0 0.024 -0.126316 0.008 0.024 -0.126316
          0.016 0.024 -0.126316 0.024 0.024 -0.126316 0.032 0.024 -0.126316 0.04 0.024 -0.126316
          0 0.032 -0.126316 0.008 0.032 -0.126316 0.016 0.032 -0.126316 0.024 0.032 -0.126316
          0.032 0.032 -0.126316 0.04 0.032 -0.126316 0 0.04 -0.126316 0.008 0.04 -0.126316
          0.016 0.04 -0.126316 0.024 0.04 -0.126316 0.032 0.04 -0.126316 0.04 0.04 -0.126316
          0 -0.04 -0.118421 0.008 -0.04 -0.118421 0 -0.032 -0.118421 0.008 -0.032 -0.118421
          0.016 -0.04 -0.118421 0.016 -0.032 -0.118421 0.024 -0.04 -0.118421 0.024 -0.032 -0.118421
          0.032 -0.04 -0.118421 0.032 -0.032 -0.118421 0.04 -0.04 -0.118421 0.04 -0.032 -0.118421
          0 -0.024 -0.118421 0.008 -0.024 -0.118421 0.016 -0.024 -0.118421 0.024 -0.024 -0.118421
          0.032 -0.024 -0.118421 0.04 -0.024 -0.118421 0 -0.016 -0.118421 0.008 -0.016 -0.118421
          0.016 -0.016 -0.118421 0.024 -0.016 -0.118421 0.032 -0.016 -0.118421 0.04 -0.016 -0.118421
          0 -0.008 -0.118421 0.008 -0.008 -0.118421 0.016 -0.008 -0.118421 0.024 -0.008 -0.118421
          0.032 -0.008 -0.118421 0.04 -0.008 -0.118421 0 0 -0.118421 0.008 0 -0.118421
          0.016 0 -0.118421 0.024 0 -0.118421 0.032 0 -0.118421 0.04 0 -0.118421
          0 0.008 -0.118421 0.008 0.008 -0.118421 0.016 0.008 -0.118421 0.024 0.008 -0.118421
          0.032 0.008 -0.118421 0.04 0.008 -0.118421 0 0.016 -0.118421 0.008 0.016 -0.118421
          0.016 0.016 -0.118421 0.024 0.016 -0.118421 0.032 0.016 -0.118421 0.04 0.016 -0.118421
          0 0.024 -0.118421 0.008 0.024 -0.118421 0.016 0.024 -0.118421 0.024 0.024 -0.118421
          0.032 0.024 -0.118421 0.04 0.024 -0.118421 0 0.032 -0.118421 0.008 0.032 -0.118421
          0.016 0.032 -0.118421 0.024 0.032 -0.118421 0.032 0.032 -0.118421 0.04 0.032 -0.118421
          0 0.04 -0.118421 0.008 0.04 -0.118421 0.016 0.04 -0.118421 0.024 0.04 -0.118421
          0.032 0.04 -0.118421 0.04 0.04 -0.118421 0 -0.04 -0.110526 0.008 -0.04 -0.110526
          0 -0.032 -0.110526 0.008 -0.032 -0.110526 0.016 -0.04 -0.110526 0.016 -0.032 -0.110526
          0.024 -0.04 -0.110526 0.024 -0.032 -0.110526 0.032 -0.04 -0.110526 0.032 -0.032 -0.110526
          0.04 -0.04 -0.110526 0.04 -0.032 -0.110526 0 -0.024 -0.110526 0.008 -0.024 -0.110526
          0.016 -0.024 -0.110526 0.024 -0.024 -0.110526 0.032 -0.024 -0.110526 0.04 -0.024 -0.110526
          0 -0.016 -0.110526 0.008 -0.016 -0.110526 0.016 -0.016 -0.110526 0.024 -0.016 -0.110526
          0.032 -0.016 -0.110526 0.04 -0.016 -0.110526 0 -0.008 -0.110526 0.008 -0.008 -0.110526
          0.016 -0.008 -0.110526 0.024 -0.008 -0.110526 0.032 -0.008 -0.110526 0.04 -0.008 -0.110526
          0 0 -0.110526 0.008 0 -0.110526 0.016 0 -0.110526 0.024 0 -0.110526
          0.032 0 -0.110526 0.04 0 -0.110526 0 0.008 -0.110526 0.008 0.008 -0.110526
          0.016 0.008 -0.110526 0.024 0.008 -0.110526 0.032 0.008 -0.110526 0.04 0.008 -0.110526
          0 0.016 -0.110526 0.008 0.016 -0.110526 0.016 0.016 -0.110526 0.024 0.016 -0.110526
          0.032 0.016 -0.110526 0.04 0.016 -0.110526 0 0.024 -0.110526 0.008 0.024 -0.110526
          0.016 0.024 -0.110526 0.024 0.024 -0.110526 0.032 0.024 -0.110526 0.04 0.024 -0.110526
          0 0.032 -0.110526 0.008 0.032 -0.110526 0.016 0.032 -0.110526 0.024 0.032 -0.110526
          0.032 0.032 -0.110526 0.04 0.032 -0.110526 0 0.04 -0.110526 0.008 0.04 -0.110526
          0.016 0.04 -0.110526 0.024 0.04 -0.110526 0.032 0.04 -0.110526 0.04 0.04 -0.110526
          0 -0.04 -0.102632 0.008 -0.04 -0.102632 0 -0.032 -0.102632 0.008 -0.032 -0.102632
          0.016 -0.04 -0.102632 0.016 -0.032 -0.102632 0.024 -0.04 -0.102632 0.024 -0.032 -0.102632
          0.032 -0.04 -0.102632 0.032 -0.032 -0.102632 0.04 -0.04 -0.102632 0.04 -0.032 -0.102632
          0 -0.024 -0.102632 0.008 -0.024 -0.102632 0.016 -0.024 -0.102632 0.024 -0.024 -0.102632
          0.032 -0.024 -0.102632 0.04 -0.024 -0.102632 0 -0.016 -0.102632 0.008 -0.016 -0.102632
          0.016 -0.016 -0.102632 0.024 -0.016 -0.102632 0.032 -0.016 -0.102632 0.04 -0.016 -0.102632
          0 -0.008 -0.102632 0.008 -0.008 -0.102632 0.016 -0.008 -0.102632 0.024 -0.008 -0.102632
          0.032 -0.008 -0.102632 0.04 -0.008 -0.102632 0 0 -0.102632 0.008 0 -0.102632
          0.016 0 -0.102632 0.024 0 -0.102632 0.032 0 -0.102632 0.04 0 -0.102632
          0 0.008 -0.102632 0.008 0.008 -0.102632 0.016 0.008 -0.102632 0.024 0.008 -0.102632
          0.032 0.008 -0.102632 0.04 0.008 -0.102632 0 0.016 -0.102632 0.008 0.016 -0.102632
          0.016 0.016 -0.102632 0.024 0.016 -0.102632 0.032 0.016 -0.102632 0.04 0.016 -0.102632
          0 0.024 -0.102632 0.008 0.024 -0.102632 0.016 0.024 -0.102632 0.024 0.024 -0.102632
          0.032 0.024 -0.102632 0.04 0.024 -0.102632 0 0.032 -0.102632 0.008 0.032 -0.102632
          0.016 0.032 -0.102632 0.024 0.032 -0.102632 0.032 0.032 -0.102632 0.04 0.032 -0.102632
          0 0.04 -0.102632 0.008 0.04 -0.102632 0.016 0.04 -0.102632 0.024 0.04 -0.102632
          0.032 0.04 -0.102632 0.04 0.04 -0.102632 0 -0.04 -0.0947368 0.008 -0.04 -0.0947368
          0 -0.032 -0.0947368 0.008 -0.032 -0.0947368 0.016 -0.04 -0.0947368 0.016 -0.032 -0.0947368
          0.024 -0.04 -0.0947368 0.024 -0.032 -0.0947368 0.032 -0.04 -0.0947368 0.032 -0.032 -0.0947368
          0.04 -0.04 -0.0947368 0.04 -0.032 -0.0947368 0 -0.024 -0.0947368 0.008 -0.024 -0.0947368
          0.016 -0.024 -0.0947368 0.024 -0.024 -0.0947368 0.032 -0.024 -0.0947368 0.04 -0.024 -0.0947368
          0 -0.016 -0.0947368 0.008 -0.016 -0.0947368 0.016 -0.016 -0.0947368 0.024 -0.016 -0.0947368
          0.032 -0.016 -0.0947368 0.04 -0.016 -0.0947368 0 -0.008 -0.0947368 0.008 -0.008 -0.0947368
          0.016 -0.008 -0.0947368 0.024 -0.008 -0.0947368 0.032 -0.008 -0.0947368 0.04 -0.008 -0.0947368
          0 0 -0.0947368 0.008 0 -0.0947368 0.016 0 -0.0947368 0.024 0 -0.0947368
          0.032 0 -0.0947368 0.04 0 -0.0947368 0 0.008 -0.0947368 0.008 0.008 -0.0947368
          0.016 0.008 -0.0947368 0.024 0.008 -0.0947368 0.032 0.008 -0.0947368 0.04 0.008 -0.0947368
          0 0.016 -0.0947368 0.008 0.016 -0.0947368 0.016 0.016 -0.0947368 0.024 0.016 -0.0947368
          0.032 0.016 -0.0947368 0.04 0.016 -0.0947368 0 0.024 -0.0947368 0.008 0.024 -0.0947368
          0.016 0.024 -0.0947368 0.024 0.024 -0.0947368 0.032 0.024 -0.0947368 0.04 0.024 -0.0947368
          0 0.032 -0.0947368 0.008 0.032 -0.0947368 0.016 0.032 -0.0947368 0.024 0.032 -0.0947368
          0.032 0.032 -0.0947368 0.04 0.032 -0.0947368 0 0.04 -0.0947368 0.008 0.04 -0.0947368
          0.016 0.04 -0.0947368 0.024 0.04 -0.0947368 0.032 0.04 -0.0947368 0.04 0.04 -0.0947368
          0 -0.04 -0.0868421 0.008 -0.04 -0.0868421 0 -0.032 -0.0868421 0.008 -0.032 -0.0868421
          0.016 -0.04 -0.0868421 0.016 -0.032 -0.0868421 0.024 -0.04 -0.0868421 0.024 -0.032 -0.0868421
          0.032 -0.04 -0.0868421 0.032 -0.032 -0.0868421 0.04 -0.04 -0.0868421 0.04 -0.032 -0.0868421
          0 -0.024 -0.0868421 0.008 -0.024 -0.0868421 0.016 -0.024 -0.0868421 0.024 -0.024 -0.0868421
          0.032 -0.024 -0.0868421 0.04 -0.024 -0.0868421 0 -0.016 -0.0868421 0.008 -0.016 -0.0868421
          0.016 -0.016 -0.0868421 0.024 -0.016 -0.0868421 0.032 -0.016 -0.0868421 0.04 -0.016 -0.0868421
          0 -0.008 -0.0868421 0.008 -0.008 -0.0868421 0.016 -0.008 -0.0868421 0.024 -0.008 -0.0868421
          0.032 -0.008 -0.0868421 0.04 -0.008 -0.0868421 0 0 -0.0868421 0.008 0 -0.0868421
          0.016 0 -0.0868421 0.024 0 -0.0868421 0.032 0 -0.0868421 0.04 0 -0.0868421
          0 0.008 -0.0868421 0.008 0.008 -0.0868421 0.016 0.008 -0.0868421 0.024 0.008 -0.0868421
          0.032 0.008 -0.0868421 0.04 0.008 -0.0868421 0 0.016 -0.0868421 0.008 0.016 -0.0868421
          0.016 0.016 -0.0868421 0.024 0.016 -0.0868421 0.032 0.016 -0.0868421 0.04 0.016 -0.0868421
          0 0.024 -0.0868421 0.008 0.024 -0.0868421 0.016 0.024 -0.0868421 0.024 0.024 -0.0868421
          0.032 0.024 -0.0868421 0.04 0.024 -0.0868421 0 0.032 -0.0868421 0.008 0.032 -0.0868421
          0.016 0.032 -0.0868421 0.024 0.032 -0.0868421 0.032 0.032 -0.0868421 0.04 0.032 -0.0868421
          0 0.04 -0.0868421 0.008 0.04 -0.0868421 0.016 0.04 -0.0868421 0.024 0.04 -0.0868421
          0.032 0.04 -0.0868421 0.04 0.04 -0.0868421 0 -0.04 -0.0789474 0.008 -0.04 -0.0789474
          0 -0.032 -0.0789474 0.008 -0.032 -0.0789474 0.016 -0.04 -0.0789474 0.016 -0.032 -0.0789474
          0.024 -0.04 -0.0789474 0.024 -0.032 -0.0789474 0.032 -0.04 -0.0789474 0.032 -0.032 -0.0789474
          0.04 -0.04 -0.0789474 0.04 -0.032 -0.0789474 0 -0.024 -0.0789474 0.008 -0.024 -0.0789474
          0.016 -0.024 -0.0789474 0.024 -0.024 -0.0789474 0.032 -0.024 -0.0789474 0.04 -0.024 -0.0789474
          0 -0.016 -0.0789474 0.008 -0.016 -0.0789474 0.016 -0.016 -0.0789474 0.024 -0.016 -0.0789474
          0.032 -0.016 -0.0789474 0.04 -0.016 -0.0789474 0 -0.008 -0.0789474 0.008 -0.008 -0.0789474
          0.016 -0.008 -0.0789474 0.024 -0.008 -0.0789474 0.032 -0.008 -0.0789474 0.04 -0.008 -0.0789474
          0 0 -0.0789474 0.008 0 -0.0789474 0.016 0 -0.0789474 0.024 0 -0.0789474
          0.032 0 -0.0789474 0.04 0 -0.0789474 0 0.008 -0.0789474 0.008 0.008 -0.0789474
          0.016 0.008 -0.0789474 0.024 0.008 -0.0789474 0.032 0.008 -0.0789474 0.04 0.008 -0.0789474
          0 0.016 -0.0789474 0.008 0.016 -0.0789474 0.016 0.016 -0.0789474 0.024 0.016 -0.0789474
          0.032 0.016 -0.0789474 0.04 0.016 -0.0789474 0 0.024 -0.0789474 0.008 0.024 -0.0789474
          0.016 0.024 -0.0789474 0.024 0.024 -0.0789474 0.032 0.024 -0.0789474 0.04 0.024 -0.0789474
          0 0.032 -0.0789474 0.008 0.032 -0.0789474 0.016 0.032 -0.0789474 0.024 0.032 -0.0789474
          0.032 0.032 -0.0789474 0.04 0.032 -0.0789474 0 0.04 -0.0789474 0.008 0.04 -0.0789474
          0.016 0.04 -0.0789474 0.024 0.04 -0.0789474 0.032 0.04 -0.0789474 0.04 0.04 -0.0789474
        </DataArray>
      </Points>
      <Cells>
        <DataArray type="Int32" Name="connectivity" NumberOfComponents="1" format="ascii">
          0 1 3 2 4 5 7 6 1 8 9 3
          5 10 11 7 8 12 13 9 10 14 15 11
          12 16 17 13 14 18 19 15 16 20 21 17
          18 22 23 19 2 3 25 24 6 7 27 26
          3 9 28 25 7 11 29 27 9 13 30 28
          11 15 31 29 13 17 32 30 15 19 33 31
          17 21 34 32 19 23 35 33 24 25 37 36
          26 27 39 38 25 28 40 37 27 29 41 39
          28 30 42 40 29 31 43 41 30 32 44 42
          31 33 45 43 32 34 46 44 33 35 47 45
          36 37 49 48 38 39 51 50 37 40 52 49
          39 41 53 51 40 42 54 52 41 43 55 53
          42 44 56 54 43 45 57 55 44 46 58 56
          45 47 59 57 48 49 61 60 50 51 63 62
          49 52 64 61 51 53 65 63 52 54 66 64
          53 55 67 65 54 56 68 66 55 57 69 67
          56 58 70 68 57 59 71 69 60 61 73 72
          62 63 75 74 61 64 76 73 63 65 77 75
          64 66 78 76 65 67 79 77 66 68 80 78
          67 69 81 79 68 70 82 80 69 71 83 81
          72 73 85 84 74 75 87 86 73 76 88 85
          75 77 89 87 76 78 90 88 77 79 91 89
          78 80 92 90 79 81 93 91 80 82 94 92
          81 83 95 93 84 85 97 96 86 87 99 98
          85 88 100 97 87 89 101 99 88 90 102 100
          89 91 103 101 90 92 104 102 91 93 105 103
          92 94 106 104 93 95 107 105 96 97 109 108
          98 99 111 110 97 100 112 109 99 101 113 111
          100 102 114 112 101 103 115 113 102 104 116 114
          103 105 117 115 104 106 118 116 105 107 119 117
          108 109 121 120 110 111 123 122 109 112 124 121
          111 113 125 123 112 114 126 124 113 115 127 125
          114 116 128 126 115 117 129 127 116 118 130 128
          117 119 131 129 4 5 7 6 132 133 135 134
          5 10 11 7 133 136 137 135 10 14 15 11
          136 138 139 137 14 18 19 15 138 140 141 139
          18 22 23 19 140 142 143 141 6 7 27 26
          134 135 145 144 7 11 29 27 135 137 146 145
          11 15 31 29 137 139 147 146 15 19 33 31
          139 141 148 147 19 23 35 33 141 143 149 148
          26 27 39 38 144 145 151 150 27 29 41 39
          145 146 152 151 29 31 43 41 146 147 153 152
          31 33 45 43 147 148 154 153 33 35 47 45
          148 149 155 154 38 39 51 50 150 151 157 156
          39 41 53 51 151 152 158 157 41 43 55 53
          152 153 159 158 43 45 57 55 153 154 160 159
          45 47 59 57 154 155 161 160 50 51 63 62
          156 157 163 162 51 53 65 63 157 158 164 163
          53 55 67 65 158 159 165 164 55 57 69 67
          159 160 166 165 57 59 71 69 160 161 167 166
          62 63 75 74 162 163 169 168 63 65 77 75
          163 164 170 169 65 67 79 77 164 165 171 170
          67 69 81 79 165 166 172 171 69 71 83 81
          166 167 173 172 74 75 87 86 168 169 175 174
          75 77 89 87 169 170 176 175 77 79 91 89
          170 171 177 176 79 81 93 91 171 172 178 177
          81 83 95 93 172 173 179 178 86 87 99 98
          174 175 181 180 87 89 101 99 175 176 182 181
          89 91 103 101 176 177 183 182 91 93 105 103
          177 178 184 183 93 95 107 105 178 179 185 184
          98 99 111 110 180 181 187 186 99 101 113 111
          181 182 188 187 101 103 115 113 182 183 189 188
          103 105 117 115 183 184 190 189 105 107 119 117
          184 185 191 190 110 111 123 122 186 187 193 192
          111 113 125 123 187 188 194 193 113 115 127 125
          188 189 195 194 115 117 129 127 189 190 196 195
          117 119 131 129 190 191 197 196 132 133 135 134
          198 199 201 200 133 136 137 135 199 202 203 201
          136 138 139 137 202 204 205 203 138 140 141 139
          204 206 207 205 140 142 143 141 206 208 209 207
          134 135 145 144 200 201 211 210 135 137 146 145
          201 203 212 211 137 139 147 146 203 205 213 212
          139 141 148 147 205 207 214 213 141 143 149 148
          207 209 215 214 144 145 151 150 210 211 217 216
          145 146 152 151 211 212 218 217 146 147 153 152