<?xml version="1.0"?>
<VTKFile type="UnstructuredGrid" version="0.1" byte_order="LittleEndian">
  <UnstructuredGrid>
    <Piece NumberOfCells="500" NumberOfPoints="726">
      <CellData Scalars="p (Pa)">
        <DataArray type="Float32" Name="p (Pa)" NumberOfComponents="1" format="ascii">
          -130164 -149595 -188543 -115574 -92475.1 -181813 -183310 -161324 -115289 -95083.6 -374995 -355877
          -237267 -130482 -100519 -1.19014e+06 -1.20109e+06 -259933 -128329 -95991.2 -1.19511e+06 -363847 -201958 -105303
          -78970.9 -1.1324e+06 -173640 -95157.5 -66256.2 -54800.1 -140119 -71765.3 -50801.6 -40382 -35489.6 -50866.9
          -37579.6 -29751.2 -25086.1 -22755.3 -27448 -22906.7 -19171.3 -16624.8 -15308.1 -19426.5 -17033 -14634.5
          -12846.3 -11898.1 -161121 -261132 -1.16279e+06 -219447 -133025 -221956 -309708 -347406 -181814 -133340
          -453103 -1.21064e+06 -1.20532e+06 -220675 -137765 -1.19068e+06 -1.19558e+06 -277443 -144539 -108593 -1.18993e+06 -251790
          -130819 -91988.1 -76026.3 -197082 -103854 -72051.8 -56968.5 -49926.9 -70775.8 -53231.6 -42040 -35377.1
          -32069.3 -35934.1 -30497 -25710.2 -22408.9 -20697.5 -21691.4 -19403.3 -16939.4 -15050.3 -14034.7 -16054.2
          -14716 -13064 -11708.1 -10960.4 -172491 -313180 -1.19836e+06 -287365 -172547 -240299 -415846 -1.23295e+06
          -297649 -191763 -440893 -511518 -428017 -315768 -241666 -1.19036e+06 -374288 -222275 -214732 -142052
          -253294 -156215 -114139 -99373.1 -81763.2 -95158.6 -76580.2 -62361 -54219.7 -48486.2 -47407.6 -41904.9
          -36159.3 -32062.6 -29643 -26814.2 -24690.5 -22005.6 -19845.8 -18617 -16814 -15831.5 -14373.3 -13097.4
          -12365.3 -12581.7 -11988.1 -10982.8 -10053.7 -9512.14 -160953 -290066 -377948 -232539 -181797 -254470
          -1.19627e+06 -1.22526e+06 -367030 -273225 -412376 -1.20799e+06 -574306 -1.2499e+06 -1.2084e+06 -1.19317e+06 -1.2206e+06 -349734
          -1.18955e+06 -250159 -211829 -187272 -131917 -154832 -95933.7 -78858.8 -70766.2 -60628 -56416.3 -48522.2
          -38803.1 -36202.7 -32602.3 -29818.5 -27615.6 -21554.5 -20639.3 -19016.8 -17534 -16579.1 -13173 -12822.7
          -11968.1 -11107.9 -10574.6 -9614.65 -9450.05 -8876.44 -8260.49 -7877.03 -133379 -194657 -232413 -179594
          -149753 -183983 -345700 -399877 -239617 -181154 -365096 -1.19974e+06 -580578 -381012 -256546 -1.21981e+06
          -1.19029e+06 -1.19264e+06 -1.18278e+06 -199880 -237395 -192651 -166998 -148251 -86623.2 -77943.8 -67180.6 -58854.3
          -52389.5 -44275.1 -34773.2 -32374.6 -29441.9 -26834.1 -24765.3 -18130.7 -17589.3 -16407.9 -15209.9 -14399.9
          -10428.2 -10358.7 -9812.68 -9180.19 -8764.57 -7213.06 -7270.52 -6943.5 -6518.4 -6235.76 -115266 -164276
          -230775 -147541 -118530 -157775 -305304 -1.19191e+06 -218191 -131741 -327029 -1.25751e+06 -1.19778e+06 -231195
          -134430 -1.18919e+06 -1.20622e+06 -287956 -180206 -104988 -190150 -169838 -103633 -79856.3 -62822.2 -64313.5
          -58883.8 -48373 -41289.3 -36492.7 -29582.2 -28270.9 -25407.5 -22827 -21149.1 -15156.5 -14932.4 -13927.6
          -12842.7 -12138.1 -8226.31 -8309.94 -7909.48 -7386.37 -7035.63 -5294.81 -5463.18 -5261.06 -4936.14 -4709.16
          -100768 -129720 -133382 -105759 -90920.5 -136328 -225948 -211978 -120612 -94028.8 -280867 -1.19149e+06
          -259757 -120994 -89461 -1.18902e+06 -862242 -166266 -93233.8 -71339.6 -163738 -135367 -78023.5 -57247.6
          -48164 -55152.4 -50781.2 -40567.9 -33704.7 -30101.7 -25725 -24794.5 -21956.4 -19390.9 -17901.4 -12923.4
          -12813.3 -11845.9 -10785.2 -10124.9 -6571.79 -6706.28 -6349.56 -5861.5 -5536.01 -3845.13 -4050.95 -3893.91
          -3607.75 -3404.05 -92682.1 -106314 -98073.3 -82187.9 -73108 -128175 -148369 -117681 -86917 -73478.8
          -270777 -282729 -139703 -86511 -69122.8 -1.18753e+06 -266554 -114134 -70616.6 -56516.5 -154980 -101764
          -64925.5 -47278.6 -40035.3 -52106.5 -45557.5 -35847.8 -29135.7 -25852.8 -24015.8 -22660.6 -19623.9 -16970.9
          -15510.1 -11663.4 -11427.6 -10363.4 -9252.3 -8585.25 -5509.98 -5603.13 -5214.3 -4710.25 -4382.06 -2865.71
          -3056.07 -2890.81 -2603.39 -2401.56 -93295.6 -99673.6 -84845.9 -70621.3 -63227.4 -175521 -172816 -103100
          -74242.3 -63177 -1.18827e+06 -1.02426e+06 -158348 -76929.1 -59871.7 -1.1889e+06 -1.18283e+06 -148252 -65427.6 -49864.7
          -174536 -139597 -65826 -43435.4 -35874.8 -56306.9 -47267.2 -34380 -26804.5 -23406.1 -24560.7 -22190.3
          -18475.6 -15552.1 -14025.2 -11347 -10794.4 -9513.43 -8296.13 -7593.66 -5000.46 -4989.75 -4522.51 -3974.91
          -3629.86 -2321.1 -2466.76 -2265.85 -1957.33 -1746.77 -85725.5 -88988.9 -77062.6 -65050.3 -58643.2 -122967
          -117832 -87391.4 -67228 -58292.5 -286561 -206377 -103740 -67321.8 -55000.9 -1.19138e+06 -232695 -94082.8
          -57522.1 -46121.1 -208441 -96804.5 -57267.4 -40298.8 -33716.2 -64815.1 -44959.7 -32647.3 -25480.8 -22215
          -26285.3 -22000.3 -17875.2 -14869.1 -13327.7 -11571.1 -10608.4 -9148.61 -7863.08 -7138.71 -4883.97 -4765.23
          -4230.69 -3649.39 -3291.26 -2128.67 -2233.15 -2000.9 -1674.03 -1455.57
        </DataArray>
        <DataArray type="Float32" Name="saturation" NumberOfComponents="1" format="ascii">
          0.239383 0.236854 0.232622 0.241519 0.24542 0.233286 0.233136 0.235474 0.241563 0.244942 0.220586 0.221448
          0.228461 0.239339 0.24398 0.205013 0.204917 0.226839 0.23964 0.244779 0.204969 0.221082 0.23137 0.243167
          0.248066 0.205541 0.234127 0.244929 0.250866 0.2537 0.238046 0.249612 0.254769 0.257781 0.259322 0.254751
          0.258653 0.261246 0.262913 0.263784 0.262057 0.263727 0.265176 0.266206 0.266753 0.265074 0.266038 0.267036
          0.267802 0.268216 0.235497 0.226757 0.205258 0.229865 0.23899 0.22966 0.223789 0.221848 0.233286 0.238947
          0.217571 0.204834 0.20488 0.229764 0.238354 0.205008 0.204965 0.225693 0.237481 0.242625 0.205014 0.227402
          0.239293 0.24551 0.248685 0.231815 0.24341 0.249549 0.253138 0.255009 0.249833 0.254114 0.257278 0.259358
          0.260452 0.259178 0.260988 0.262684 0.263916 0.264575 0.26419 0.265083 0.266077 0.266861 0.267291 0.266441
          0.267002 0.267708 0.2683 0.268631 0.234249 0.223599 0.20494 0.225081 0.234243 0.228234 0.218918 0.204645
          0.224472 0.232313 0.217996 0.215729 0.218462 0.223458 0.228133 0.205011 0.220617 0.229634 0.230258 0.237797
          0.227297 0.236062 0.241742 0.244179 0.247493 0.244929 0.248568 0.251794 0.253852 0.255409 0.255713 0.257319
          0.259105 0.260455 0.261283 0.262284 0.263059 0.26407 0.264909 0.265397 0.266128 0.266534 0.267147 0.267693
          0.268011 0.267917 0.268177 0.268621 0.269038 0.269283 0.235516 0.224918 0.220458 0.228822 0.233288 0.227215
          0.204959 0.204709 0.220938 0.225961 0.219052 0.204857 0.214038 0.204504 0.204853 0.204986 0.204749 0.221737
          0.205018 0.227518 0.230504 0.232746 0.239141 0.236225 0.244789 0.248089 0.249835 0.252218 0.25328 0.255399
          0.258269 0.259092 0.260273 0.261222 0.261997 0.264243 0.264598 0.265237 0.265834 0.266225 0.267661 0.267812
          0.268185 0.268565 0.268804 0.269237 0.269311 0.269574 0.269858 0.270036 0.238942 0.23204 0.228832 0.233511
          0.236834 0.233069 0.22193 0.219544 0.228285 0.233352 0.221025 0.204928 0.213883 0.220326 0.227071 0.204756
          0.205011 0.204991 0.205078 0.231558 0.228452 0.232229 0.234841 0.237018 0.246529 0.24828 0.250651 0.25266
          0.254339 0.256615 0.259555 0.26035 0.261353 0.262277 0.263031 0.265592 0.265811 0.266295 0.266794 0.267136
          0.268869 0.2689 0.269147 0.269435 0.269625 0.270347 0.27032 0.270474 0.270676 0.27081 0.241567 0.235142
          0.228959 0.237106 0.241068 0.235881 0.224035 0.204997 0.229969 0.239166 0.222863 0.204442 0.204945 0.228926
          0.238799 0.205021 0.204872 0.225045 0.233448 0.24322 0.232467 0.234532 0.243447 0.247882 0.251682 0.251324
          0.252652 0.255441 0.257505 0.258999 0.261305 0.261764 0.262795 0.263757 0.2644 0.266816 0.26691 0.267337
          0.267804 0.268111 0.269874 0.269835 0.270021 0.270266 0.270431 0.271263 0.271182 0.271279 0.271437 0.271548
          0.243937 0.239445 0.238941 0.243091 0.245709 0.238545 0.229339 0.230491 0.240756 0.245134 0.225479 0.205001
          0.226851 0.2407 0.245984 0.205022 0.208661 0.234921 0.24528 0.249707 0.235202 0.238673 0.248263 0.253067
          0.255499 0.253608 0.254774 0.257724 0.259906 0.261124 0.262679 0.263021 0.264089 0.265088 0.265685 0.267769
          0.267816 0.268239 0.268709 0.269006 0.27065 0.270587 0.270756 0.27099 0.271146 0.271973 0.271871 0.271949
          0.272091 0.272192 0.245381 0.242999 0.244408 0.247407 0.249316 0.239662 0.237004 0.241197 0.246472 0.249235
          0.226119 0.225363 0.2381 0.24655 0.250205 0.205036 0.226395 0.241743 0.249868 0.253254 0.236207 0.243766
          0.251179 0.255749 0.257887 0.254415 0.256242 0.259206 0.26146 0.262632 0.26331 0.26382 0.264996 0.266064
          0.266668 0.268319 0.268424 0.268898 0.269402 0.269708 0.271159 0.271114 0.271302 0.271547 0.271708 0.272462
          0.272366 0.272449 0.272594 0.272696 0.245268 0.244127 0.246876 0.249867 0.251584 0.23393 0.234214 0.243538
          0.249069 0.251596 0.205029 0.206645 0.235814 0.248494 0.252405 0.205023 0.205077 0.237018 0.251061 0.255026
          0.234033 0.238114 0.250967 0.256862 0.259197 0.253308 0.255752 0.259683 0.262288 0.263538 0.263107 0.263999
          0.265454 0.26665 0.267295 0.268459 0.268705 0.269283 0.269841 0.270168 0.271406 0.271411 0.271639 0.271909
          0.27208 0.272737 0.272663 0.272765 0.272922 0.273029 0.246704 0.246074 0.248465 0.25115 0.252713 0.240409
          0.241174 0.24638 0.25064 0.252801 0.225129 0.230977 0.243429 0.250618 0.253647 0.205002 0.22881 0.245124
          0.252997 0.256079 0.230796 0.244633 0.253062 0.257806 0.259902 0.251205 0.256415 0.260258 0.262768 0.26399
          0.262475 0.264072 0.265695 0.266937 0.267594 0.26836 0.268788 0.269449 0.270043 0.270382 0.271463 0.271521
          0.271783 0.27207 0.272249 0.272834 0.272781 0.2729 0.273067 0.273179
        </DataArray>
        <DataArray type="Float32" Name="process rank" NumberOfComponents="1" format="ascii">
          3 3 3 3 3 3 3 3 3 3 3 3
          3 3 3 3 3 3 3 3 3 3 3 3
          3 3 3 3 3 3 3 3 3 3 3 3
          3 3 3 3 3 3 3 3 3 3 3 3
          3 3 3 3 3 3 3 3 3 3 3 3
          3 3 3 3 3 3 3 3 3 3 3 3
          3 3 3 3 3 3 3 3 3 3 3 3
          3 3 3 3 3 3 3 3 3 3 3 3
          3 3 3 3 3 3 3 3 3 3 3 3
          3 3 3 3 3 3 3 3 3 3 3 3
          3 3 3 3 3 3 3 3 3 3 3 3
          3 3 3 3 3 3 3 3 3 3 3 3
          3 3 3 3 3 3 3 3 3 3 3 3
          3 3 3 3 3 3 3 3 3 3 3 3
          3 3 3 3 3 3 3 3 3 3 3 3
          3 3 3 3 3 3 3 3 3 3 3 3
          3 3 3 3 3 3 3 3 3 3 3 3
          3 3 3 3 3 3 3 3 3 3 3 3
          3 3 3 3 3 3 3 3 3 3 3 3
          3 3 3 3 3 3 3 3 3 3 3 3
          3 3 3 3 3 3 3 3 3 3 3 3
          3 3 3 3 3 3 3 3 3 3 3 3
          3 3 3 3 3 3 3 3 3 3 3 3
          3 3 3 3 3 3 3 3 3 3 3 3
          3 3 3 3 3 3 3 3 3 3 3 3
          3 3 3 3 3 3 3 3 3 3 3 3
          3 3 3 3 3 3 3 3 3 3 3 3
          3 3 3 3 3 3 3 3 3 3 3 3
          3 3 3 3 3 3 3 3 3 3 3 3
          3 3 3 3 3 3 3 3 3 3 3 3
          3 3 3 3 3 3 3 3 3 3 3 3
          3 3 3 3 3 3 3 3 3 3 3 3
          3 3 3 3 3 3 3 3 3 3 3 3
          3 3 3 3 3 3 3 3 3 3 3 3
          3 3 3 3 3 3 3 3 3 3 3 3
          3 3 3 3 3 3 3 3 3 3 3 3
          3 3 3 3 3 3 3 3 3 3 3 3
          3 3 3 3 3 3 3 3 3 3 3 3
          3 3 3 3 3 3 3 3 3 3 3 3
          3 3 3 3 3 3 3 3 3 3 3 3
          3 3 3 3 3 3 3 3 3 3 3 3
          3 3 3 3 3 3 3 3
        </DataArray>
      </CellData>
      <Points>
        <DataArray type="Float32" Name="Coordinates" NumberOfComponents="3" format="ascii">
          0 -0.04 -0.0789474 0.008 -0.04 -0.0789474 0 -0.032 -0.0789474 0.008 -0.032 -0.0789474
          0 -0.04 -0.0710526 0.008 -0.04 -0.0710526 0 -0.032 -0.0710526 0.008 -0.032 -0.0710526
          0.016 -0.04 -0.0789474 0.016 -0.032 -0.0789474 0.016 -0.04 -0.0710526 0.016 -0.032 -0.0710526
          0.024 -0.04 -0.0789474 0.024 -0.032 -0.0789474 0.024 -0.04 -0.0710526 0.024 -0.032 -0.0710526
          0.032 -0.04 -0.0789474 0.032 -0.032 -0.0789474 0.032 -0.04 -0.0710526 0.032 -0.032 -0.0710526
          0.04 -0.04 -0.0789474 0.04 -0.032 -0.0789474 0.04 -0.04 -0.0710526 0.04 -0.032 -0.0710526
          0 -0.024 -0.0789474 0.008 -0.024 -0.0789474 0 -0.024 -0.0710526 0.008 -0.024 -0.0710526
          0.016 -0.024 -0.0789474 0.016 -0.024 -0.0710526 0.024 -0.024 -0.0789474 0.024 -0.024 -0.0710526
          0.032 -0.024 -0.0789474 0.032 -0.024 -0.0710526 0.04 -0.024 -0.0789474 0.04 -0.024 -0.0710526
          0 -0.016 -0.0789474 0.008 -0.016 -0.0789474 0 -0.016 -0.0710526 0.008 -0.016 -0.0710526
          0.016 -0.016 -0.0789474 0.016 -0.016 -0.0710526 0.024 -0.016 -0.0789474 0.024 -0.016 -0.0710526
          0.032 -0.016 -0.0789474 0.032 -0.016 -0.0710526 0.04 -0.016 -0.0789474 0.04 -0.016 -0.0710526
          0 -0.008 -0.0789474 0.008 -0.008 -0.0789474 0 -0.008 -0.0710526 0.008 -0.008 -0.0710526
          0.016 -0.008 -0.0789474 0.016 -0.008 -0.0710526 0.024 -0.008 -0.0789474 0.024 -0.008 -0.0710526
          0.032 -0.008 -0.0789474 0.032 -0.008 -0.0710526 0.04 -0.008 -0.0789474 0.04 -0.008 -0.0710526
          0 0 -0.0789474 0.008 0 -0.0789474 0 0 -0.0710526 0.008 0 -0.0710526
          0.016 0 -0.0789474 0.016 0 -0.0710526 0.024 0 -0.0789474 0.024 0 -0.0710526
          0.032 0 -0.0789474 0.032 0 -0.0710526 0.04 0 -0.0789474 0.04 0 -0.0710526
          0 0.008 -0.0789474 0.008 0.008 -0.0789474 0 0.008 -0.0710526 0.008 0.008 -0.0710526
          0.016 0.008 -0.0789474 0.016 0.008 -0.0710526 0.024 0.008 -0.0789474 0.024 0.008 -0.0710526
          0.032 0.008 -0.0789474 0.032 0.008 -0.0710526 0.04 0.008 -0.0789474 0.04 0.008 -0.0710526
          0 0.016 -0.0789474 0.008 0.016 -0.0789474 0 0.016 -0.0710526 0.008 0.016 -0.0710526
          0.016 0.016 -0.0789474 0.016 0.016 -0.0710526 0.024 0.016 -0.0789474 0.024 0.016 -0.0710526
          0.032 0.016 -0.0789474 0.032 0.016 -0.0710526 0.04 0.016 -0.0789474 0.04 0.016 -0.0710526
          0 0.024 -0.0789474 0.008 0.024 -0.0789474 0 0.024 -0.0710526 0.008 0.024 -0.0710526
          0.016 0.024 -0.0789474 0.016 0.024 -0.0710526 0.024 0.024 -0.0789474 0.024 0.024 -0.0710526
          0.032 0.024 -0.0789474 0.032 0.024 -0.0710526 0.04 0.024 -0.0789474 0.04 0.024 -0.0710526
          0 0.032 -0.0789474 0.008 0.032 -0.0789474 0 0.032 -0.0710526 0.008 0.032 -0.0710526
          0.016 0.032 -0.0789474 0.016 0.032 -0.0710526 0.024 0.032 -0.0789474 0.024 0.032 -0.0710526
          0.032 0.032 -0.0789474 0.032 0.032 -0.0710526 0.04 0.032 -0.0789474 0.04 0.032 -0.0710526
          0 0.04 -0.0789474 0.008 0.04 -0.0789474 0 0.04 -0.0710526 0.008 0.04 -0.0710526
          0.016 0.04 -0.0789474 0.016 0.04 -0.0710526 0.024 0.04 -0.0789474 0.024 0.04 -0.0710526
          0.032 0.04 -0.0789474 0.032 0.04 -0.0710526 0.04 0.04 -0.0789474 0.04 0.04 -0.0710526
          0 -0.04 -0.0631579 0.008 -0.04 -0.0631579 0 -0.032 -0.0631579 0.008 -0.032 -0.0631579
          0.016 -0.04 -0.0631579 0.016 -0.032 -0.0631579 0.024 -0.04 -0.0631579 0.024 -0.032 -0.0631579
          0.032 -0.04 -0.0631579 0.032 -0.032 -0.0631579 0.04 -0.04 -0.0631579 0.04 -0.032 -0.0631579
          0 -0.024 -0.0631579 0.008 -0.024 -0.0631579 0.016 -0.024 -0.0631579 0.024 -0.024 -0.0631579
          0.032 -0.024 -0.0631579 0.04 -0.024 -0.0631579 0 -0.016 -0.0631579 0.008 -0.016 -0.0631579
          0.016 -0.016 -0.0631579 0.024 -0.016 -0.0631579 0.032 -0.016 -0.0631579 0.04 -0.016 -0.0631579
          0 -0.008 -0.0631579 0.008 -0.008 -0.0631579 0.016 -0.008 -0.0631579 0.024 -0.008 -0.0631579
          0.032 -0.008 -0.0631579 0.04 -0.008 -0.0631579 0 0 -0.0631579 0.008 0 -0.0631579
          0.016 0 -0.0631579 0.024 0 -0.0631579 0.032 0 -0.0631579 0.04 0 -0.0631579
          0 0.008 -0.0631579 0.008 0.008 -0.0631579 0.016 0.008 -0.0631579 0.024 0.008 -0.0631579
          0.032 0.008 -0.0631579 0.04 0.008 -0.0631579 0 0.016 -0.0631579 0.008 0.016 -0.0631579
          0.016 0.016 -0.0631579 0.024 0.016 -0.0631579 0.032 0.016 -0.0631579 0.04 0.016 -0.0631579
          0 0.024 -0.0631579 0.008 0.024 -0.0631579 0.016 0.024 -0.0631579 0.024 0.024 -0.0631579
          0.032 0.024 -0.0631579 0.04 0.024 -0.0631579 0 0.032 -0.0631579 0.008 0.032 -0.0631579
          0.016 0.032 -0.0631579 0.024 0.032 -0.0631579 0.032 0.032 -0.0631579 0.04 0.032 -0.0631579
          0 0.04 -0.0631579 0.008 0.04 -0.0631579 0.016 0.04 -0.0631579 0.024 0.04 -0.0631579
          0.032 0.04 -0.0631579 0.04 0.04 -0.0631579 0 -0.04 -0.0552632 0.008 -0.04 -0.0552632
          0 -0.032 -0.0552632 0.008 -0.032 -0.0552632 0.016 -0.04 -0.0552632 0.016 -0.032 -0.0552632
          0.024 -0.04 -0.0552632 0.024 -0.032 -0.0552632 0.032 -0.04 -0.0552632 0.032 -0.032 -0.0552632
          0.04 -0.04 -0.0552632 0.04 -0.032 -0.0552632 0 -0.024 -0.0552632 0.008 -0.024 -0.0552632
          0.016 -0.024 -0.0552632 0.024 -0.024 -0.0552632 0.032 -0.024 -0.0552632 0.04 -0.024 -0.0552632
          0 -0.016 -0.0552632 0.008 -0.016 -0.0552632 0.016 -0.016 -0.0552632 0.024 -0.016 -0.0552632
          0.032 -0.016 -0.0552632 0.04 -0.016 -0.0552632 0 -0.008 -0.0552632 0.008 -0.008 -0.0552632
          0.016 -0.008 -0.0552632 0.024 -0.008 -0.0552632 0.032 -0.008 -0.0552632 0.04 -0.008 -0.0552632
          0 0 -0.0552632 0.008 0 -0.0552632 0.016 0 -0.0552632 0.024 0 -0.0552632
          0.032 0 -0.0552632 0.04 0 -0.0552632 0 0.008 -0.0552632 0.008 0.008 -0.0552632
          0.016 0.008 -0.0552632 0.024 0.008 -0.0552632 0.032 0.008 -0.0552632 0.04 0.008 -0.0552632
          0 0.016 -0.0552632 0.008 0.016 -0.0552632 0.016 0.016 -0.0552632 0.024 0.016 -0.0552632
          0.032 0.016 -0.0552632 0.04 0.016 -0.0552632 0 0.024 -0.0552632 0.008 0.024 -0.0552632
          0.016 0.024 -0.0552632 0.024 0.024 -0.0552632 0.032 0.024 -0.0552632 0.04 0.024 -0.0552632
          0 0.032 -0.0552632 0.008 0.032 -0.0552632 0.016 0.032 -0.0552632 0.024 0.032 -0.0552632
          0.032 0.032 -0.0552632 0.04 0.032 -0.0552632 0 0.04 -0.0552632 0.008 0.04 -0.0552632
          0.016 0.04 -0.0552632 0.024 0.04 -0.0552632 0.032 0.04 -0.0552632 0.04 0.04 -0.0552632
          0 -0.04 -0.0473684 0.008 -0.04 -0.0473684 0 -0.032 -0.0473684 0.008 -0.032 -0.0473684
          0.016 -0.04 -0.0473684 0.016 -0.032 -0.0473684 0.024 -0.04 -0.0473684 0.024 -0.032 -0.0473684
          0.032 -0.04 -0.0473684 0.032 -0.032 -0.0473684 0.04 -0.04 -0.0473684 0.04 -0.032 -0.0473684
          0 -0.024 -0.0473684 0.008 -0.024 -0.0473684 0.016 -0.024 -0.0473684 0.024 -0.024 -0.0473684
          0.032 -0.024 -0.0473684 0.04 -0.024 -0.0473684 0 -0.016 -0.0473684 0.008 -0.016 -0.0473684
          0.016 -0.016 -0.0473684 0.024 -0.016 -0.0473684 0.032 -0.016 -0.0473684 0.04 -0.016 -0.0473684
          0 -0.008 -0.0473684 0.008 -0.008 -0.0473684 0.016 -0.008 -0.0473684 0.024 -0.008 -0.0473684
          0.032 -0.008 -0.0473684 0.04 -0.008 -0.0473684 0 0 -0.0473684 0.008 0 -0.0473684
          0.016 0 -0.0473684 0.024 0 -0.0473684 0.032 0 -0.0473684 0.04 0 -0.0473684
          0 0.008 -0.0473684 0.008 0.008 -0.0473684 0.016 0.008 -0.0473684 0.024 0.008 -0.0473684
          0.032 0.008 -0.0473684 0.04 0.008 -0.0473684 0 0.016 -0.0473684 0.008 0.016 -0.0473684
          0.016 0.016 -0.0473684 0.024 0.016 -0.0473684 0.032 0.016 -0.0473684 0.04 0.016 -0.0473684
          0 0.024 -0.0473684 0.008 0.024 -0.0473684 0.016 0.024 -0.0473684 0.024 0.024 -0.0473684
          0.032 0.024 -0.0473684 0.04 0.024 -0.0473684 0 0.032 -0.0473684 0.008 0.032 -0.0473684
          0.016 0.032 -0.0473684 0.024 0.032 -0.0473684 0.032 0.032 -0.0473684 0.04 0.032 -0.0473684
          0 0.04 -0.0473684 0.008 0.04 -0.0473684 0.016 0.04 -0.0473684 0.024 0.04 -0.0473684
          0.032 0.04 -0.0473684 0.04 0.04 -0.0473684 0 -0.04 -0.0394737 0.008 -0.04 -0.0394737
          0 -0.032 -0.0394737 0.008 -0.032 -0.0394737 0.016 -0.04 -0.0394737 0.016 -0.032 -0.0394737
          0.024 -0.04 -0.0394737 0.024 -0.032 -0.0394737 0.032 -0.04 -0.0394737 0.032 -0.032 -0.0394737
          0.04 -0.04 -0.0394737 0.04 -0.032 -0.0394737 0 -0.024 -0.0394737 0.008 -0.024 -0.0394737
          0.016 -0.024 -0.0394737 0.024 -0.024 -0.0394737 0.032 -0.024 -0.0394737 0.04 -0.024 -0.0394737
          0 -0.016 -0.0394737 0.008 -0.016 -0.0394737 0.016 -0.016 -0.0394737 0.024 -0.016 -0.0394737
          0.032 -0.016 -0.0394737 0.04 -0.016 -0.0394737 0 -0.008 -0.0394737 0.008 -0.008 -0.0394737
          0.016 -0.008 -0.0394737 0.024 -0.008 -0.0394737 0.032 -0.008 -0.0394737 0.04 -0.008 -0.0394737
          0 0 -0.0394737 0.008 0 -0.0394737 0.016 0 -0.0394737 0.024 0 -0.0394737
          0.032 0 -0.0394737 0.04 0 -0.0394737 0 0.008 -0.0394737 0.008 0.008 -0.0394737
          0.016 0.008 -0.0394737 0.024 0.008 -0.0394737 0.032 0.008 -0.0394737 0.04 0.008 -0.0394737
          0 0.016 -0.0394737 0.008 0.016 -0.0394737 0.016 0.016 -0.0394737 0.024 0.016 -0.0394737
          0.032 0.016 -0.0394737 0.04 0.016 -0.0394737 0 0.024 -0.0394737 0.008 0.024 -0.0394737
          0.016 0.024 -0.0394737 0.024 0.024 -0.0394737 0.032 0.024 -0.0394737 0.04 0.024 -0.0394737
          0 0.032 -0.0394737 0.008 0.032 -0.0394737 0.016 0.032 -0.0394737 0.024 0.032 -0.0394737
          0.032 0.032 -0.0394737 0.04 0.032 -0.0394737 0 0.04 -0.0394737 0.008 0.04 -0.0394737
          0.016 0.04 -0.0394737 0.024 0.04 -0.0394737 0.032 0.04 -0.0394737 0.04 0.04 -0.0394737
          0 -0.04 -0.0315789 0.008 -0.04 -0.0315789 0 -0.032 -0.0315789 0.008 -0.032 -0.0315789
          0.016 -0.04 -0.0315789 0.016 -0.032 -0.0315789 0.024 -0.04 -0.0315789 0.024 -0.032 -0.0315789
          0.032 -0.04 -0.0315789 0.032 -0.032 -0.0315789 0.04 -0.04 -0.0315789 0.04 -0.032 -0.0315789
          0 -0.024 -0.0315789 0.008 -0.024 -0.0315789 0.016 -0.024 -0.0315789 0.024 -0.024 -0.0315789
          0.032 -0.024 -0.0315789 0.04 -0.024 -0.0315789 0 -0.016 -0.0315789 0.008 -0.016 -0.0315789
          0.016 -0.016 -0.0315789 0.024 -0.016 -0.0315789 0.032 -0.016 -0.0315789 0.04 -0.016 -0.0315789
          0 -0.008 -0.0315789 0.008 -0.008 -0.0315789 0.016 -0.008 -0.0315789 0.024 -0.008 -0.0315789
          0.032 -0.008 -0.0315789 0.04 -0.008 -0.0315789 0 0 -0.0315789 0.008 0 -0.0315789
          0.016 0 -0.0315789 0.024 0 -0.0315789 0.032 0 -0.0315789 0.04 0 -0.0315789
          0 0.008 -0.0315789 0.008 0.008 -0.0315789 0.016 0.008 -0.0315789 0.024 0.008 -0.0315789
          0.032 0.008 -0.0315789 0.04 0.008 -0.0315789 0 0.016 -0.0315789 0.008 0.016 -0.0315789
          0.016 0.016 -0.0315789 0.024 0.016 -0.0315789 0.032 0.016 -0.0315789 0.04 0.016 -0.0315789
          0 0.024 -0.0315789 0.008 0.024 -0.0315789 0.016 0.024 -0.0315789 0.024 0.024 -0.0315789
          0.032 0.024 -0.0315789 0.04 0.024 -0.0315789 0 0.032 -0.0315789 0.008 0.032 -0.0315789
          0.016 0.032 -0.0315789 0.024 0.032 -0.0315789 0.032 0.032 -0.0315789 0.04 0.032 -0.0315789
          0 0.04 -0.0315789 0.008 0.04 -0.0315789 0.016 0.04 -0.0315789 0.024 0.04 -0.0315789
          0.032 0.04 -0.0315789 0.04 0.04 -0.0315789 0 -0.04 -0.0236842 0.008 -0.04 -0.0236842
          0 -0.032 -0.0236842 0.008 -0.032 -0.0236842 0.016 -0.04 -0.0236842 0.016 -0.032 -0.0236842
          0.024 -0.04 -0.0236842 0.024 -0.032 -0.0236842 0.032 -0.04 -0.0236842 0.032 -0.032 -0.0236842
          0.04 -0.04 -0.0236842 0.04 -0.032 -0.0236842 0 -0.024 -0.0236842 0.008 -0.024 -0.0236842
          0.016 -0.024 -0.0236842 0.024 -0.024 -0.0236842 0.032 -0.024 -0.0236842 0.04 -0.024 -0.0236842
          0 -0.016 -0.0236842 0.008 -0.016 -0.0236842 0.016 -0.016 -0.0236842 0.024 -0.016 -0.0236842
          0.032 -0.016 -0.0236842 0.04 -0.016 -0.0236842 0 -0.008 -0.0236842 0.008 -0.008 -0.0236842
          0.016 -0.008 -0.0236842 0.024 -0.008 -0.0236842 0.032 -0.008 -0.0236842 0.04 -0.008 -0.0236842
          0 0 -0.0236842 0.008 0 -0.0236842 0.016 0 -0.0236842 0.024 0 -0.0236842
          0.032 0 -0.0236842 0.04 0 -0.0236842 0 0.008 -0.0236842 0.008 0.008 -0.0236842
          0.016 0.008 -0.0236842 0.024 0.008 -0.0236842 0.032 0.008 -0.0236842 0.04 0.008 -0.0236842
          0 0.016 -0.0236842 0.008 0.016 -0.0236842 0.016 0.016 -0.0236842 0.024 0.016 -0.0236842
          0.032 0.016 -0.0236842 0.04 0.016 -0.0236842 0 0.024 -0.0236842 0.008 0.024 -0.0236842
          0.016 0.024 -0.0236842 0.024 0.024 -0.0236842 0.032 0.024 -0.0236842 0.04 0.024 -0.0236842
          0 0.032 -0.0236842 0.008 0.032 -0.0236842 0.016 0.032 -0.0236842 0.024 0.032 -0.0236842
          0.032 0.032 -0.0236842 0.04 0.032 -0.0236842 0 0.04 -0.0236842 0.008 0.04 -0.0236842
          0.016 0.04 -0.0236842 0.024 0.04 -0.0236842 0.032 0.04 -0.0236842 0.04 0.04 -0.0236842
          0 -0.04 -0.0157895 0.008 -0.04 -0.0157895 0 -0.032 -0.0157895 0.008 -0.032 -0.0157895
          0.016 -0.04 -0.0157895 0.016 -0.032 -0.0157895 0.024 -0.04 -0.0157895 0.024 -0.032 -0.0157895
          0.032 -0.04 -0.0157895 0.032 -0.032 -0.0157895 0.04 -0.04 -0.0157895 0.04 -0.032 -0.0157895
          0 -0.024 -0.0157895 0.008 -0.024 -0.0157895 0.016 -0.024 -0.0157895 0.024 -0.024 -0.0157895
          0.032 -0.024 -0.0157895 0.04 -0.024 -0.0157895 0 -0.016 -0.0157895 0.008 -0.016 -0.0157895
          0.016 -0.016 -0.0157895 0.024 -0.016 -0.0157895 0.032 -0.016 -0.0157895 0.04 -0.016 -0.0157895
          0 -0.008 -0.0157895 0.008 -0.008 -0.0157895 0.016 -0.008 -0.0157895 0.024 -0.008 -0.0157895
          0.032 -0.008 -0.0157895 0.04 -0.008 -0.0157895 0 0 -0.0157895 0.008 0 -0.0157895
          0.016 0 -0.0157895 0.024 0 -0.0157895 0.032 0 -0.0157895 0.04 0 -0.0157895
          0 0.008 -0.0157895 0.008 0.008 -0.0157895 0.016 0.008 -0.0157895 0.024 0.008 -0.0157895
          0.032 0.008 -0.0157895 0.04 0.008 -0.0157895 0 0.016 -0.0157895 0.008 0.016 -0.0157895
          0.016 0.016 -0.0157895 0.024 0.016 -0.0157895 0.032 0.016 -0.0157895 0.04 0.016 -0.0157895
          0 0.024 -0.0157895 0.008 0.024 -0.0157895 0.016 0.024 -0.0157895 0.024 0.024 -0.0157895
          0.032 0.024 -0.0157895 0.04 0.024 -0.0157895 0 0.032 -0.0157895 0.008 0.032 -0.0157895
          0.016 0.032 -0.0157895 0.024 0.032 -0.0157895 0.032 0.032 -0.0157895 0.04 0.032 -0.0157895
          0 0.04 -0.0157895 0.008 0.04 -0.0157895 0.016 0.04 -0.0157895 0.024 0.04 -0.0157895
          0.032 0.04 -0.0157895 0.04 0.04 -0.0157895 0 -0.04 -0.00789474 0.008 -0.04 -0.00789474
          0 -0.032 -0.00789474 0.008 -0.032 -0.00789474 0.016 -0.04 -0.00789474 0.016 -0.032 -0.00789474
          0.024 -0.04 -0.00789474 0.024 -0.032 -0.00789474 0.032 -0.04 -0.00789474 0.032 -0.032 -0.00789474
          0.04 -0.04 -0.00789474 0.04 -0.032 -0.00789474 0 -0.024 -0.00789474 0.008 -0.024 -0.00789474
          0.016 -0.024 -0.00789474 0.024 -0.024 -0.00789474 0.032 -0.024 -0.00789474 0.04 -0.024 -0.00789474
          0 -0.016 -0.00789474 0.008 -0.016 -0.00789474 0.016 -0.016 -0.00789474 0.024 -0.016 -0.00789474
          0.032 -0.016 -0.00789474 0.04 -0.016 -0.00789474 0 -0.008 -0.00789474 0.008 -0.008 -0.00789474
          0.016 -0.008 -0.00789474 0.024 -0.008 -0.00789474 0.032 -0.008 -0.00789474 0.04 -0.008 -0.00789474
          0 0 -0.00789474 0.008 0 -0.00789474 0.016 0 -0.00789474 0.024 0 -0.00789474
          0.032 0 -0.00789474 0.04 0 -0.00789474 0 0.008 -0.00789474 0.008 0.008 -0.00789474
          0.016 0.008 -0.00789474 0.024 0.008 -0.00789474 0.032 0.008 -0.00789474 0.04 0.008 -0.00789474
          0 0.016 -0.00789474 0.008 0.016 -0.00789474 0.016 0.016 -0.00789474 0.024 0.016 -0.00789474
          0.032 0.016 -0.00789474 0.04 0.016 -0.00789474 0 0.024 -0.00789474 0.008 0.024 -0.00789474
          0.016 0.024 -0.00789474 0.024 0.024 -0.00789474 0.032 0.024 -0.00789474 0.04 0.024 -0.00789474
          0 0.032 -0.00789474 0.008 0.032 -0.00789474 0.016 0.032 -0.00789474 0.024 0.032 -0.00789474
          0.032 0.032 -0.00789474 0.04 0.032 -0.00789474 0 0.04 -0.00789474 0.008 0.04 -0.00789474
          0.016 0.04 -0.00789474 0.024 0.04 -0.00789474 0.032 0.04 -0.00789474 0.04 0.04 -0.00789474
          0 -0.04 3.46945e-18 0.008 -0.04 3.46945e-18 0 -0.032 3.46945e-18 0.008 -0.032 3.46945e-18
          0.016 -0.04 3.46945e-18 0.016 -0.032 3.46945e-18 0.024 -0.04 3.46945e-18 0.024 -0.032 3.46945e-18
          0.032 -0.04 3.46945e-18 0.032 -0.032 3.46945e-18 0.04 -0.04 3.46945e-18 0.04 -0.032 3.46945e-18
          0 -0.024 3.46945e-18 0.008 -0.024 3.46945e-18 0.016 -0.024 3.46945e-18 0.024 -0.024 3.46945e-18
          0.032 -0.024 3.46945e-18 0.04 -0.024 3.46945e-18 0 -0.016 3.46945e-18 0.008 -0.016 3.46945e-18
          0.016 -0.016 3.46945e-18 0.024 -0.016 3.46945e-18 0.032 -0.016 3.46945e-18 0.04 -0.016 3.46945e-18
          0 -0.008 3.46945e-18 0.008 -0.008 3.46945e-18 0.016 -0.008 3.46945e-18 0.024 -0.008 3.46945e-18
          0.032 -0.008 3.46945e-18 0.04 -0.008 3.46945e-18 0 0 3.46945e-18 0.008 0 3.46945e-18
          0.016 0 3.46945e-18 0.024 0 3.46945e-18 0.032 0 3.46945e-18 0.04 0 3.46945e-18
          0 0.008 3.46945e-18 0.008 0.008 3.46945e-18 0.016 0.008 3.46945e-18 0.024 0.008 3.46945e-18
          0.032 0.008 3.46945e-18 0.04 0.008 3.46945e-18 0 0.016 3.46945e-18 0.008 0.016 3.46945e-18
          0.016 0.016 3.46945e-18 0.024 0.016 3.46945e-18 0.032 0.016 3.46945e-18 0.04 0.016 3.46945e-18
          0 0.024 3.46945e-18 0.008 0.024 3.46945e-18 0.016 0.024 3.46945e-18 0.024 0.024 3.46945e-18
          0.032 0.024 3.46945e-18 0.04 0.024 3.46945e-18 0 0.032 3.46945e-18 0.008 0.032 3.46945e-18
          0.016 0.032 3.46945e-18 0.024 0.032 3.46945e-18 0.032 0.032 3.46945e-18 0.04 0.032 3.46945e-18
          0 0.04 3.46945e-18 0.008 0.04 3.46945e-18 0.016 0.04 3.46945e-18 0.024 0.04 3.46945e-18
          0.032 0.04 3.46945e-18 0.04 0.04 3.46945e-18
        </DataArray>
      </Points>
      <Cells>
        <DataArray type="Int32" Name="connectivity" NumberOfComponents="1" format="ascii">
          0 1 3 2 4 5 7 6 1 8 9 3