<?xml version="1.0"?>
<VTKFile type="UnstructuredGrid" version="0.1" byte_order="LittleEndian">
  <UnstructuredGrid>
    <Piece NumberOfCells="450" NumberOfPoints="660">
      <CellData Scalars="p (Pa)">
        <DataArray type="Float32" Name="p (Pa)" NumberOfComponents="1" format="ascii">
          11537.3 11186.2 10548.1 9749.56 8962.16 11570.5 11209 10549.8 9720.55 8900.13 11666.4 11292.5
          10607.2 9738.95 8874.19 11865.1 11488.3 10796.4 9916.93 9036.89 12189.4 11826.5 11162.7 10324.4
          9492.28 12626.6 12293 11687.2 10931.4 10192.4 13128 12833.2 12302.3 11648.7 11019.1 13617.5
          13362.9 12908.1 12354.4 11826.1 14007.8 13785.9 13391.8 12915.5 12462.1 14224.3 14020.4 13659.6
          13224.8 12810.7 10390.4 9960.25 9174.09 8187.09 7226.53 10406.4 9957.03 9129.9 8079.76 7047.26
          10480 10006 9124.99 7987.59 6846.42 10668.3 10184.3 9280.85 8104.23 6903.96 11005.7 10537.8
          9669.9 8553.99 7439.23 11482.1 11052.4 10264.2 9271.47 8312.48 12045 11668.4 10985.8 10144.5
          9356.49 12607.1 12287.9 11716.9 11026.9 10392.8 13061.8 12790.2 12309.4 11736 11211.9 13315.7
          13070.7 12639.2 12127.6 11659.3 8120.95 7509.14 6375 4931.33 3542.91 8095.21 7439.87 6206.72
          4596.38 3001.52 8113.9 7399.98 6029.26 4169.23 2216.49 8274.17 7530.39 6089.95 4094.28 1888.13
          8635.63 7912.32 6528.15 4662.94 2718.71 9192.73 8526.97 7273.1 5640.94 4060.24 9889.02 9309.86
          8238.38 6890.72 5665.41 10614.2 10137.8 9276.42 8234.21 7329.53 11215.6 10826.8 10137.8 9327.84
          8636.47 11555.2 11215.1 10619.5 9928.69 9339.06 4641.57 3696.32 1897.56 -469.312 -2759.29 4534.35
          3488.36 1440.94 -1397.1 -4343.66 4444.11 3258.47 848.657 -2763.9 -7081.65 4544.39 3283.42 684.321
          -3368.8 -8865.74 4935.51 3701.32 1212.01 -2454.39 -6745.46 5616.49 4466.24 2187.63 -1024.09 -4347.75
          6536.94 5534.98 3591.31 967.596 -1494.85 7556.26 6760.73 5278.12 3422.69 1872.56 8426.93 7812.15
          6708.8 5409.52 4381.7 8923.57 8408.25 7503.67 6471.13 5662.77 -132.079 -1634.17 -4609.69 -8765.52
          -12946.2 -382.98 -2110.9 -5707.65 -11249.6 -17737.6 -666.516 -2716.45 -7275.88 -15444.6 -28538.9 -673.638
          -2889.52 -7899.99 -17389.1 -36564 -255.04 -2438.33 -7191.05 -15245.1 -26962.4 584.291 -1512.76 -6038.67
          -13542.4 -23476.4 1841.44 -17.4448 -3966.12 -10288.7 -17975.9 3357.19 1943.89 -853.562 -4698.78 -8105.8
          4689.63 3669.59 1781.71 -515.453 -2242.54 5452.41 4641.66 3200.04 1554.43 375.107 -6207.96 -8552.15
          -13444.6 -20917.2 -29164 -6684.18 -9500.57 -15885.1 -27549.9 -45359.1 -7268.61 -10786.7 -19749.4 -41874.9
          -111671 -7424.44 -11251.9 -21070.2 -46163.5 -144303 -6980.33 -10780.2 -19900.2 -38591 -75702.7 -5976.68
          -9838.06 -19358.4 -40739 -97581.5 -4264.21 -7839.6 -16716.8 -36795.8 -89939.7 -1940.44 -4497.58 -10080.8
          -19248.9 -29910.6 140.394 -1552.1 -4847.95 -9157.54 -12449 1321.33 60.1729 -2236.83 -4908.21 -6678.88
          -13419 -16850.2 -24370.4 -37105.5 -53829.4 -14191.5 -18477.1 -29134.2 -53887.6 -123131 -15149.4 -20788.8
          -38123.1 -117482 -1.15417e+06 -15409.2 -21496.2 -39683.6 -115608 -989750 -14888 -21021.1 -37350.6 -78869.5
          -197904 -13728.1 -20530.5 -40744.3 -117268 -940248 -11482.6 -18376.2 -40830.1 -136368 -1.10199e+06 -7918.46
          -12384.3 -23619.6 -47890.8 -97259.7 -4749.08 -7399.05 -12913.9 -20898.6 -27430.9 -2996.1 -4830.68 -8272.79
          -12386.8 -14887.3 -21401.2 -25951.4 -35913.1 -52886.3 -76465.6 -22492.9 -28206.4 -42221.9 -74011.8 -162334
          -23740.6 -31239.6 -53479.7 -146182 -1.18322e+06 -23796.4 -31728.1 -53639.1 -115711 -324713 -22901.6 -31382.6
          -54736.1 -115962 -297886 -21358.9 -31645.2 -66091.5 -203934 -1.19096e+06 -18537 -31054 -101157 -1.06247e+06
          -1.18393e+06 -13367.8 -20219.3 -41070.9 -109042 -131163 -8981.95 -12578.6 -20564.8 -33203.3 -38284.6 -6648.71
          -8975.77 -13437.4 -18807.1 -21302.1 -29762.1 -35590.2 -47805.8 -66507.6 -90570.2 -31371.1 -38920.8 -55987.5
          -84774.2 -133787 -32956.5 -43151.3 -69779.1 -122973 -276161 -31925.3 -41888.6 -67803 -128649 -317381
          -29513.4 -39698.2 -69313.1 -176591 -1.19514e+06 -26486.1 -38038.7 -77132.2 -232733 -1.21207e+06 -22399.5 -35878.3
          -111868 -1.14148e+06 -1.18262e+06 -16233 -23396.8 -45124.2 -115607 -127343 -11269.5 -14974.1 -23127.9 -35747.1
          -39611.5 -8684.67 -11070.8 -15606.9 -20952.6 -23215.9
        </DataArray>
        <DataArray type="Float32" Name="saturation" NumberOfComponents="1" format="ascii">
          0.280623 0.2804 0.279996 0.279498 0.279014 0.280645 0.280414 0.279997 0.27948 0.278976 0.280706 0.280467
          0.280033 0.279492 0.27896 0.280834 0.280592 0.280153 0.279602 0.27906 0.281043 0.280809 0.280385 0.279856
          0.279339 0.281327 0.28111 0.280719 0.280238 0.279774 0.281655 0.281462 0.281116 0.280695 0.280293 0.281979
          0.28181 0.281511 0.28115 0.280808 0.282239 0.282091 0.281829 0.281516 0.28122 0.282384 0.282247 0.282007
          0.281719 0.281447 0.279897 0.279629 0.279144 0.278544 0.27797 0.279907 0.279627 0.279117 0.278479 0.277864
          0.279954 0.279657 0.279114 0.278424 0.277745 0.280072 0.279769 0.279209 0.278494 0.277779 0.280285 0.27999
          0.279449 0.278766 0.278096 0.280588 0.280315 0.279818 0.279203 0.278619 0.280949 0.280707 0.280272 0.279744
          0.279256 0.281314 0.281106 0.280738 0.280298 0.279899 0.281612 0.281434 0.28112 0.280751 0.280416 0.281779
          0.281617 0.281335 0.281003 0.280701 0.278504 0.278138 0.277469 0.276635 0.275853 0.278488 0.278096 0.27737
          0.276445 0.275553 0.2785 0.278073 0.277267 0.276204 0.275122 0.278596 0.27815 0.277302 0.276162 0.274944
          0.278815 0.278379 0.277558 0.276483 0.275397 0.279155 0.278749 0.277997 0.277042 0.276142 0.279585 0.279227
          0.278575 0.277771 0.277057 0.280038 0.27974 0.279206 0.278572 0.278031 0.280418 0.280172 0.27974 0.279238
          0.278816 0.280635 0.280418 0.280041 0.279609 0.279245 0.276471 0.275939 0.274949 0.273689 0.272515 0.27641
          0.275823 0.274702 0.273209 0.271727 0.276359 0.275695 0.274385 0.272513 0.270409 0.276416 0.275709 0.274297
          0.27221 0.269579 0.276638 0.275941 0.274579 0.272669 0.270568 0.277028 0.276371 0.275106 0.273401 0.271725
          0.277563 0.276981 0.27588 0.274448 0.273158 0.278166 0.277695 0.276834 0.275786 0.274935 0.278689 0.278318
          0.277664 0.276909 0.276324 0.27899 0.278677 0.278134 0.277525 0.277055 0.273866 0.273087 0.271597 0.269625
          0.267759 0.273735 0.272844 0.271064 0.268503 0.265751 0.273587 0.272537 0.270318 0.266695 0.26167 0.273583
          0.27245 0.270025 0.265893 0.258976 0.273802 0.272677 0.270357 0.266779 0.262231 0.274244 0.273149 0.270905
          0.267502 0.263512 0.274918 0.273926 0.271913 0.268932 0.265655 0.27575 0.274974 0.273489 0.271553 0.26993
          0.276498 0.275924 0.274886 0.273665 0.272777 0.276934 0.276471 0.275663 0.274763 0.274133 0.270824 0.269723
          0.267544 0.264489 0.26145 0.270597 0.269288 0.266512 0.26202 0.256299 0.270321 0.268709 0.264947 0.257328
          0.24213 0.270248 0.268501 0.26443 0.256067 0.237511 0.270457 0.268711 0.264887 0.258335 0.248754 0.270934
          0.269135 0.265101 0.257672 0.244495 0.271766 0.270054 0.266168 0.258902 0.245893 0.27293 0.271652 0.269026
          0.265145 0.261191 0.274009 0.273129 0.27148 0.269445 0.267975 0.274638 0.273967 0.27278 0.271451 0.2706
          0.267555 0.266113 0.263178 0.258803 0.253955 0.267224 0.265453 0.261461 0.25394 0.240385 0.266819 0.264539
          0.258481 0.241227 0.205337 0.26671 0.264265 0.257996 0.241514 0.207034 0.266929 0.264449 0.258725 0.248087
          0.231739 0.267422 0.26464 0.25767 0.24126 0.207628 0.268399 0.265493 0.257644 0.23854 0.205835 0.270017
          0.268003 0.263458 0.255576 0.244552 0.271528 0.27026 0.267773 0.264497 0.262063 0.272396 0.271489 0.269852
          0.268002 0.266929 0.264302 0.262596 0.259185 0.254206 0.248592 0.263884 0.261787 0.257224 0.249119 0.235359
          0.263413 0.260734 0.254048 0.237275 0.205074 0.263392 0.260568 0.254005 0.241498 0.222984 0.263728 0.260685
          0.253716 0.24146 0.224458 0.264318 0.260596 0.250905 0.231193 0.205005 0.265429 0.260797 0.24387 0.206236
          0.205068 0.267577 0.264762 0.257571 0.242552 0.239245 0.269525 0.267918 0.264627 0.260072 0.258431 0.270614
          0.269528 0.267547 0.265321 0.26434 0.261242 0.259289 0.2556 0.250808 0.245775 0.260689 0.258232 0.253391
          0.246891 0.238886 0.260155 0.256946 0.250057 0.240408 0.225774 0.260501 0.257324 0.250507 0.239595 0.223372
          0.261328 0.257991 0.250162 0.233819 0.204969 0.262403 0.258508 0.248451 0.228807 0.204822 0.263919 0.259196
          0.242099 0.205455 0.205079 0.266367 0.263542 0.256367 0.241514 0.239779 0.268494 0.266893 0.263643 0.259238
          0.258018 0.269662 0.268582 0.266628 0.264476 0.26361
        </DataArray>
        <DataArray type="Float32" Name="process rank" NumberOfComponents="1" format="ascii">
          0 0 0 0 0 0 0 0 0 0 0 0
          0 0 0 0 0 0 0 0 0 0 0 0
          0 0 0 0 0 0 0 0 0 0 0 0
          0 0 0 0 0 0 0 0 0 0 0 0
          0 0 0 0 0 0 0 0 0 0 0 0
          0 0 0 0 0 0 0 0 0 0 0 0
          0 0 0 0 0 0 0 0 0 0 0 0
          0 0 0 0 0 0 0 0 0 0 0 0
          0 0 0 0 0 0 0 0 0 0 0 0
          0 0 0 0 0 0 0 0 0 0 0 0
          0 0 0 0 0 0 0 0 0 0 0 0
          0 0 0 0 0 0 0 0 0 0 0 0
          0 0 0 0 0 0 0 0 0 0 0 0
          0 0 0 0 0 0 0 0 0 0 0 0
          0 0 0 0 0 0 0 0 0 0 0 0
          0 0 0 0 0 0 0 0 0 0 0 0
          0 0 0 0 0 0 0 0 0 0 0 0
          0 0 0 0 0 0 0 0 0 0 0 0
          0 0 0 0 0 0 0 0 0 0 0 0
          0 0 0 0 0 0 0 0 0 0 0 0
          0 0 0 0 0 0 0 0 0 0 0 0
          0 0 0 0 0 0 0 0 0 0 0 0
          0 0 0 0 0 0 0 0 0 0 0 0
          0 0 0 0 0 0 0 0 0 0 0 0
          0 0 0 0 0 0 0 0 0 0 0 0
          0 0 0 0 0 0 0 0 0 0 0 0
          0 0 0 0 0 0 0 0 0 0 0 0
          0 0 0 0 0 0 0 0 0 0 0 0
          0 0 0 0 0 0 0 0 0 0 0 0
          0 0 0 0 0 0 0 0 0 0 0 0
          0 0 0 0 0 0 0 0 0 0 0 0
          0 0 0 0 0 0 0 0 0 0 0 0
          0 0 0 0 0 0 0 0 0 0 0 0
          0 0 0 0 0 0 0 0 0 0 0 0
          0 0 0 0 0 0 0 0 0 0 0 0
          0 0 0 0 0 0 0 0 0 0 0 0
          0 0 0 0 0 0 0 0 0 0 0 0
          0 0 0 0 0 0
        </DataArray>
      </CellData>
      <Points>
        <DataArray type="Float32" Name="Coordinates" NumberOfComponents="3" format="ascii">
          -0.04 -0.04 -0.15 -0.032 -0.04 -0.15 -0.04 -0.032 -0.15 -0.032 -0.032 -0.15
          -0.04 -0.04 -0.142105 -0.032 -0.04 -0.142105 -0.04 -0.032 -0.142105 -0.032 -0.032 -0.142105
          -0.024 -0.04 -0.15 -0.024 -0.032 -0.15 -0.024 -0.04 -0.142105 -0.024 -0.032 -0.142105
          -0.016 -0.04 -0.15 -0.016 -0.032 -0.15 -0.016 -0.04 -0.142105 -0.016 -0.032 -0.142105
          -0.008 -0.04 -0.15 -0.008 -0.032 -0.15 -0.008 -0.04 -0.142105 -0.008 -0.032 -0.142105
          0 -0.04 -0.15 0 -0.032 -0.15 0 -0.04 -0.142105 0 -0.032 -0.142105
          -0.04 -0.024 -0.15 -0.032 -0.024 -0.15 -0.04 -0.024 -0.142105 -0.032 -0.024 -0.142105
          -0.024 -0.024 -0.15 -0.024 -0.024 -0.142105 -0.016 -0.024 -0.15 -0.016 -0.024 -0.142105
          -0.008 -0.024 -0.15 -0.008 -0.024 -0.142105 0 -0.024 -0.15 0 -0.024 -0.142105
          -0.04 -0.016 -0.15 -0.032 -0.016 -0.15 -0.04 -0.016 -0.142105 -0.032 -0.016 -0.142105
          -0.024 -0.016 -0.15 -0.024 -0.016 -0.142105 -0.016 -0.016 -0.15 -0.016 -0.016 -0.142105
          -0.008 -0.016 -0.15 -0.008 -0.016 -0.142105 0 -0.016 -0.15 0 -0.016 -0.142105
          -0.04 -0.008 -0.15 -0.032 -0.008 -0.15 -0.04 -0.008 -0.142105 -0.032 -0.008 -0.142105
          -0.024 -0.008 -0.15 -0.024 -0.008 -0.142105 -0.016 -0.008 -0.15 -0.016 -0.008 -0.142105
          -0.008 -0.008 -0.15 -0.008 -0.008 -0.142105 0 -0.008 -0.15 0 -0.008 -0.142105
          -0.04 0 -0.15 -0.032 0 -0.15 -0.04 0 -0.142105 -0.032 0 -0.142105
          -0.024 0 -0.15 -0.024 0 -0.142105 -0.016 0 -0.15 -0.016 0 -0.142105
          -0.008 0 -0.15 -0.008 0 -0.142105 0 0 -0.15 0 0 -0.142105
          -0.04 0.008 -0.15 -0.032 0.008 -0.15 -0.04 0.008 -0.142105 -0.032 0.008 -0.142105
          -0.024 0.008 -0.15 -0.024 0.008 -0.142105 -0.016 0.008 -0.15 -0.016 0.008 -0.142105
          -0.008 0.008 -0.15 -0.008 0.008 -0.142105 0 0.008 -0.15 0 0.008 -0.142105
          -0.04 0.016 -0.15 -0.032 0.016 -0.15 -0.04 0.016 -0.142105 -0.032 0.016 -0.142105
          -0.024 0.016 -0.15 -0.024 0.016 -0.142105 -0.016 0.016 -0.15 -0.016 0.016 -0.142105
          -0.008 0.016 -0.15 -0.008 0.016 -0.142105 0 0.016 -0.15 0 0.016 -0.142105
          -0.04 0.024 -0.15 -0.032 0.024 -0.15 -0.04 0.024 -0.142105 -0.032 0.024 -0.142105
          -0.024 0.024 -0.15 -0.024 0.024 -0.142105 -0.016 0.024 -0.15 -0.016 0.024 -0.142105
          -0.008 0.024 -0.15 -0.008 0.024 -0.142105 0 0.024 -0.15 0 0.024 -0.142105
          -0.04 0.032 -0.15 -0.032 0.032 -0.15 -0.04 0.032 -0.142105 -0.032 0.032 -0.142105
          -0.024 0.032 -0.15 -0.024 0.032 -0.142105 -0.016 0.032 -0.15 -0.016 0.032 -0.142105
          -0.008 0.032 -0.15 -0.008 0.032 -0.142105 0 0.032 -0.15 0 0.032 -0.142105
          -0.04 0.04 -0.15 -0.032 0.04 -0.15 -0.04 0.04 -0.142105 -0.032 0.04 -0.142105
          -0.024 0.04 -0.15 -0.024 0.04 -0.142105 -0.016 0.04 -0.15 -0.016 0.04 -0.142105
          -0.008 0.04 -0.15 -0.008 0.04 -0.142105 0 0.04 -0.15 0 0.04 -0.142105
          -0.04 -0.04 -0.134211 -0.032 -0.04 -0.134211 -0.04 -0.032 -0.134211 -0.032 -0.032 -0.134211
          -0.024 -0.04 -0.134211 -0.024 -0.032 -0.134211 -0.016 -0.04 -0.134211 -0.016 -0.032 -0.134211
          -0.008 -0.04 -0.134211 -0.008 -0.032 -0.134211 0 -0.04 -0.134211 0 -0.032 -0.134211
          -0.04 -0.024 -0.134211 -0.032 -0.024 -0.134211 -0.024 -0.024 -0.134211 -0.016 -0.024 -0.134211
          -0.008 -0.024 -0.134211 0 -0.024 -0.134211 -0.04 -0.016 -0.134211 -0.032 -0.016 -0.134211
          -0.024 -0.016 -0.134211 -0.016 -0.016 -0.134211 -0.008 -0.016 -0.134211 0 -0.016 -0.134211
          -0.04 -0.008 -0.134211 -0.032 -0.008 -0.134211 -0.024 -0.008 -0.134211 -0.016 -0.008 -0.134211
          -0.008 -0.008 -0.134211 0 -0.008 -0.134211 -0.04 0 -0.134211 -0.032 0 -0.134211
          -0.024 0 -0.134211 -0.016 0 -0.134211 -0.008 0 -0.134211 0 0 -0.134211
          -0.04 0.008 -0.134211 -0.032 0.008 -0.134211 -0.024 0.008 -0.134211 -0.016 0.008 -0.134211
          -0.008 0.008 -0.134211 0 0.008 -0.134211 -0.04 0.016 -0.134211 -0.032 0.016 -0.134211
          -0.024 0.016 -0.134211 -0.016 0.016 -0.134211 -0.008 0.016 -0.134211 0 0.016 -0.134211
          -0.04 0.024 -0.134211 -0.032 0.024 -0.134211 -0.024 0.024 -0.134211 -0.016 0.024 -0.134211
          -0.008 0.024 -0.134211 0 0.024 -0.134211 -0.04 0.032 -0.134211 -0.032 0.032 -0.134211
          -0.024 0.032 -0.134211 -0.016 0.032 -0.134211 -0.008 0.032 -0.134211 0 0.032 -0.134211
          -0.04 0.04 -0.134211 -0.032 0.04 -0.134211 -0.024 0.04 -0.134211 -0.016 0.04 -0.134211
          -0.008 0.04 -0.134211 0 0.04 -0.134211 -0.04 -0.04 -0.126316 -0.032 -0.04 -0.126316
          -0.04 -0.032 -0.126316 -0.032 -0.032 -0.126316 -0.024 -0.04 -0.126316 -0.024 -0.032 -0.126316
          -0.016 -0.04 -0.126316 -0.016 -0.032 -0.126316 -0.008 -0.04 -0.126316 -0.008 -0.032 -0.126316
          0 -0.04 -0.126316 0 -0.032 -0.126316 -0.04 -0.024 -0.126316 -0.032 -0.024 -0.126316
          -0.024 -0.024 -0.126316 -0.016 -0.024 -0.126316 -0.008 -0.024 -0.126316 0 -0.024 -0.126316
          -0.04 -0.016 -0.126316 -0.032 -0.016 -0.126316 -0.024 -0.016 -0.126316 -0.016 -0.016 -0.126316
          -0.008 -0.016 -0.126316 0 -0.016 -0.126316 -0.04 -0.008 -0.126316 -0.032 -0.008 -0.126316
          -0.024 -0.008 -0.126316 -0.016 -0.008 -0.126316 -0.008 -0.008 -0.126316 0 -0.008 -0.126316
          -0.04 0 -0.126316 -0.032 0 -0.126316 -0.024 0 -0.126316 -0.016 0 -0.126316
          -0.008 0 -0.126316 0 0 -0.126316 -0.04 0.008 -0.126316 -0.032 0.008 -0.126316
          -0.024 0.008 -0.126316 -0.016 0.008 -0.126316 -0.008 0.008 -0.126316 0 0.008 -0.126316
          -0.04 0.016 -0.126316 -0.032 0.016 -0.126316 -0.024 0.016 -0.126316 -0.016 0.016 -0.126316
          -0.008 0.016 -0.126316 0 0.016 -0.126316 -0.04 0.024 -0.126316 -0.032 0.024 -0.126316
          -0.024 0.024 -0.126316 -0.016 0.024 -0.126316 -0.008 0.024 -0.126316 0 0.024 -0.126316
          -0.04 0.032 -0.126316 -0.032 0.032 -0.126316 -0.024 0.032 -0.126316 -0.016 0.032 -0.126316
          -0.008 0.032 -0.126316 0 0.032 -0.126316 -0.04 0.04 -0.126316 -0.032 0.04 -0.126316
          -0.024 0.04 -0.126316 -0.016 0.04 -0.126316 -0.008 0.04 -0.126316 0 0.04 -0.126316
          -0.04 -0.04 -0.118421 -0.032 -0.04 -0.118421 -0.04 -0.032 -0.118421 -0.032 -0.032 -0.118421
          -0.024 -0.04 -0.118421 -0.024 -0.032 -0.118421 -0.016 -0.04 -0.118421 -0.016 -0.032 -0.118421
          -0.008 -0.04 -0.118421 -0.008 -0.032 -0.118421 0 -0.04 -0.118421 0 -0.032 -0.118421
          -0.04 -0.024 -0.118421 -0.032 -0.024 -0.118421 -0.024 -0.024 -0.118421 -0.016 -0.024 -0.118421
          -0.008 -0.024 -0.118421 0 -0.024 -0.118421 -0.04 -0.016 -0.118421 -0.032 -0.016 -0.118421
          -0.024 -0.016 -0.118421 -0.016 -0.016 -0.118421 -0.008 -0.016 -0.118421 0 -0.016 -0.118421
          -0.04 -0.008 -0.118421 -0.032 -0.008 -0.118421 -0.024 -0.008 -0.118421 -0.016 -0.008 -0.118421
          -0.008 -0.008 -0.118421 0 -0.008 -0.118421 -0.04 0 -0.118421 -0.032 0 -0.118421
          -0.024 0 -0.118421 -0.016 0 -0.118421 -0.008 0 -0.118421 0 0 -0.118421
          -0.04 0.008 -0.118421 -0.032 0.008 -0.118421 -0.024 0.008 -0.118421 -0.016 0.008 -0.118421
          -0.008 0.008 -0.118421 0 0.008 -0.118421 -0.04 0.016 -0.118421 -0.032 0.016 -0.118421
          -0.024 0.016 -0.118421 -0.016 0.016 -0.118421 -0.008 0.016 -0.118421 0 0.016 -0.118421
          -0.04 0.024 -0.118421 -0.032 0.024 -0.118421 -0.024 0.024 -0.118421 -0.016 0.024 -0.118421
          -0.008 0.024 -0.118421 0 0.024 -0.118421 -0.04 0.032 -0.118421 -0.032 0.032 -0.118421
          -0.024 0.032 -0.118421 -0.016 0.032 -0.118421 -0.008 0.032 -0.118421 0 0.032 -0.118421
          -0.04 0.04 -0.118421 -0.032 0.04 -0.118421 -0.024 0.04 -0.118421 -0.016 0.04 -0.118421
          -0.008 0.04 -0.118421 0 0.04 -0.118421 -0.04 -0.04 -0.110526 -0.032 -0.04 -0.110526
          -0.04 -0.032 -0.110526 -0.032 -0.032 -0.110526 -0.024 -0.04 -0.110526 -0.024 -0.032 -0.110526
          -0.016 -0.04 -0.110526 -0.016 -0.032 -0.110526 -0.008 -0.04 -0.110526 -0.008 -0.032 -0.110526
          0 -0.04 -0.110526 0 -0.032 -0.110526 -0.04 -0.024 -0.110526 -0.032 -0.024 -0.110526
          -0.024 -0.024 -0.110526 -0.016 -0.024 -0.110526 -0.008 -0.024 -0.110526 0 -0.024 -0.110526
          -0.04 -0.016 -0.110526 -0.032 -0.016 -0.110526 -0.024 -0.016 -0.110526 -0.016 -0.016 -0.110526
          -0.008 -0.016 -0.110526 0 -0.016 -0.110526 -0.04 -0.008 -0.110526 -0.032 -0.008 -0.110526
          -0.024 -0.008 -0.110526 -0.016 -0.008 -0.110526 -0.008 -0.008 -0.110526 0 -0.008 -0.110526
          -0.04 0 -0.110526 -0.032 0 -0.110526 -0.024 0 -0.110526 -0.016 0 -0.110526
          -0.008 0 -0.110526 0 0 -0.110526 -0.04 0.008 -0.110526 -0.032 0.008 -0.110526
          -0.024 0.008 -0.110526 -0.016 0.008 -0.110526 -0.008 0.008 -0.110526 0 0.008 -0.110526
          -0.04 0.016 -0.110526 -0.032 0.016 -0.110526 -0.024 0.016 -0.110526 -0.016 0.016 -0.110526
          -0.008 0.016 -0.110526 0 0.016 -0.110526 -0.04 0.024 -0.110526 -0.032 0.024 -0.110526
          -0.024 0.024 -0.110526 -0.016 0.024 -0.110526 -0.008 0.024 -0.110526 0 0.024 -0.110526
          -0.04 0.032 -0.110526 -0.032 0.032 -0.110526 -0.024 0.032 -0.110526 -0.016 0.032 -0.110526
          -0.008 0.032 -0.110526 0 0.032 -0.110526 -0.04 0.04 -0.110526 -0.032 0.04 -0.110526
          -0.024 0.04 -0.110526 -0.016 0.04 -0.110526 -0.008 0.04 -0.110526 0 0.04 -0.110526
          -0.04 -0.04 -0.102632 -0.032 -0.04 -0.102632 -0.04 -0.032 -0.102632 -0.032 -0.032 -0.102632
          -0.024 -0.04 -0.102632 -0.024 -0.032 -0.102632 -0.016 -0.04 -0.102632 -0.016 -0.032 -0.102632
          -0.008 -0.04 -0.102632 -0.008 -0.032 -0.102632 0 -0.04 -0.102632 0 -0.032 -0.102632
          -0.04 -0.024 -0.102632 -0.032 -0.024 -0.102632 -0.024 -0.024 -0.102632 -0.016 -0.024 -0.102632
          -0.008 -0.024 -0.102632 0 -0.024 -0.102632 -0.04 -0.016 -0.102632 -0.032 -0.016 -0.102632
          -0.024 -0.016 -0.102632 -0.016 -0.016 -0.102632 -0.008 -0.016 -0.102632 0 -0.016 -0.102632
          -0.04 -0.008 -0.102632 -0.032 -0.008 -0.102632 -0.024 -0.008 -0.102632 -0.016 -0.008 -0.102632
          -0.008 -0.008 -0.102632 0 -0.008 -0.102632 -0.04 0 -0.102632 -0.032 0 -0.102632
          -0.024 0 -0.102632 -0.016 0 -0.102632 -0.008 0 -0.102632 0 0 -0.102632
          -0.04 0.008 -0.102632 -0.032 0.008 -0.102632 -0.024 0.008 -0.102632 -0.016 0.008 -0.102632
          -0.008 0.008 -0.102632 0 0.008 -0.102632 -0.04 0.016 -0.102632 -0.032 0.016 -0.102632
          -0.024 0.016 -0.102632 -0.016 0.016 -0.102632 -0.008 0.016 -0.102632 0 0.016 -0.102632
          -0.04 0.024 -0.102632 -0.032 0.024 -0.102632 -0.024 0.024 -0.102632 -0.016 0.024 -0.102632
          -0.008 0.024 -0.102632 0 0.024 -0.102632 -0.04 0.032 -0.102632 -0.032 0.032 -0.102632
          -0.024 0.032 -0.102632 -0.016 0.032 -0.102632 -0.008 0.032 -0.102632 0 0.032 -0.102632
          -0.04 0.04 -0.102632 -0.032 0.04 -0.102632 -0.024 0.04 -0.102632 -0.016 0.04 -0.102632
          -0.008 0.04 -0.102632 0 0.04 -0.102632 -0.04 -0.04 -0.0947368 -0.032 -0.04 -0.0947368
          -0.04 -0.032 -0.0947368 -0.032 -0.032 -0.0947368 -0.024 -0.04 -0.0947368 -0.024 -0.032 -0.0947368
          -0.016 -0.04 -0.0947368 -0.016 -0.032 -0.0947368 -0.008 -0.04 -0.0947368 -0.008 -0.032 -0.0947368
          0 -0.04 -0.0947368 0 -0.032 -0.0947368 -0.04 -0.024 -0.0947368 -0.032 -0.024 -0.0947368
          -0.024 -0.024 -0.0947368 -0.016 -0.024 -0.0947368 -0.008 -0.024 -0.0947368 0 -0.024 -0.0947368
          -0.04 -0.016 -0.0947368 -0.032 -0.016 -0.0947368 -0.024 -0.016 -0.0947368 -0.016 -0.016 -0.0947368
          -0.008 -0.016 -0.0947368 0 -0.016 -0.0947368 -0.04 -0.008 -0.0947368 -0.032 -0.008 -0.0947368
          -0.024 -0.008 -0.0947368 -0.016 -0.008 -0.0947368 -0.008 -0.008 -0.0947368 0 -0.008 -0.0947368
          -0.04 0 -0.0947368 -0.032 0 -0.0947368 -0.024 0 -0.0947368 -0.016 0 -0.0947368
          -0.008 0 -0.0947368 0 0 -0.0947368 -0.04 0.008 -0.0947368 -0.032 0.008 -0.0947368
          -0.024 0.008 -0.0947368 -0.016 0.008 -0.0947368 -0.008 0.008 -0.0947368 0 0.008 -0.0947368
          -0.04 0.016 -0.0947368 -0.032 0.016 -0.0947368 -0.024 0.016 -0.0947368 -0.016 0.016 -0.0947368
          -0.008 0.016 -0.0947368 0 0.016 -0.0947368 -0.04 0.024 -0.0947368 -0.032 0.024 -0.0947368
          -0.024 0.024 -0.0947368 -0.016 0.024 -0.0947368 -0.008 0.024 -0.0947368 0 0.024 -0.0947368
          -0.04 0.032 -0.0947368 -0.032 0.032 -0.0947368 -0.024 0.032 -0.0947368 -0.016 0.032 -0.0947368
          -0.008 0.032 -0.0947368 0 0.032 -0.0947368 -0.04 0.04 -0.0947368 -0.032 0.04 -0.0947368
          -0.024 0.04 -0.0947368 -0.016 0.04 -0.0947368 -0.008 0.04 -0.0947368 0 0.04 -0.0947368
          -0.04 -0.04 -0.0868421 -0.032 -0.04 -0.0868421 -0.04 -0.032 -0.0868421 -0.032 -0.032 -0.0868421
          -0.024 -0.04 -0.0868421 -0.024 -0.032 -0.0868421 -0.016 -0.04 -0.0868421 -0.016 -0.032 -0.0868421
          -0.008 -0.04 -0.0868421 -0.008 -0.032 -0.0868421 0 -0.04 -0.0868421 0 -0.032 -0.0868421
          -0.04 -0.024 -0.0868421 -0.032 -0.024 -0.0868421 -0.024 -0.024 -0.0868421 -0.016 -0.024 -0.0868421
          -0.008 -0.024 -0.0868421 0 -0.024 -0.0868421 -0.04 -0.016 -0.0868421 -0.032 -0.016 -0.0868421
          -0.024 -0.016 -0.0868421 -0.016 -0.016 -0.0868421 -0.008 -0.016 -0.0868421 0 -0.016 -0.0868421
          -0.04 -0.008 -0.0868421 -0.032 -0.008 -0.0868421 -0.024 -0.008 -0.0868421 -0.016 -0.008 -0.0868421
          -0.008 -0.008 -0.0868421 0 -0.008 -0.0868421 -0.04 0 -0.0868421 -0.032 0 -0.0868421
          -0.024 0 -0.0868421 -0.016 0 -0.0868421 -0.008 0 -0.0868421 0 0 -0.0868421
          -0.04 0.008 -0.0868421 -0.032 0.008 -0.0868421 -0.024 0.008 -0.0868421 -0.016 0.008 -0.0868421
          -0.008 0.008 -0.0868421 0 0.008 -0.0868421 -0.04 0.016 -0.0868421 -0.032 0.016 -0.0868421
          -0.024 0.016 -0.0868421 -0.016 0.016 -0.0868421 -0.008 0.016 -0.0868421 0 0.016 -0.0868421
          -0.04 0.024 -0.0868421 -0.032 0.024 -0.0868421 -0.024 0.024 -0.0868421 -0.016 0.024 -0.0868421
          -0.008 0.024 -0.0868421 0 0.024 -0.0868421 -0.04 0.032 -0.0868421 -0.032 0.032 -0.0868421
          -0.024 0.032 -0.0868421 -0.016 0.032 -0.0868421 -0.008 0.032 -0.0868421 0 0.032 -0.0868421
          -0.04 0.04 -0.0868421 -0.032 0.04 -0.0868421 -0.024 0.04 -0.0868421 -0.016 0.04 -0.0868421
          -0.008 0.04 -0.0868421 0 0.04 -0.0868421 -0.04 -0.04 -0.0789474 -0.032 -0.04 -0.0789474
          -0.04 -0.032 -0.0789474 -0.032 -0.032 -0.0789474 -0.024 -0.04 -0.0789474 -0.024 -0.032 -0.0789474
          -0.016 -0.04 -0.0789474 -0.016 -0.032 -0.0789474 -0.008 -0.04 -0.0789474 -0.008 -0.032 -0.0789474
          0 -0.04 -0.0789474 0 -0.032 -0.0789474 -0.04 -0.024 -0.0789474 -0.032 -0.024 -0.0789474
          -0.024 -0.024 -0.0789474 -0.016 -0.024 -0.0789474 -0.008 -0.024 -0.0789474 0 -0.024 -0.0789474
          -0.04 -0.016 -0.0789474 -0.032 -0.016 -0.0789474 -0.024 -0.016 -0.0789474 -0.016 -0.016 -0.0789474
          -0.008 -0.016 -0.0789474 0 -0.016 -0.0789474 -0.04 -0.008 -0.0789474 -0.032 -0.008 -0.0789474
          -0.024 -0.008 -0.0789474 -0.016 -0.008 -0.0789474 -0.008 -0.008 -0.0789474 0 -0.008 -0.0789474
          -0.04 0 -0.0789474 -0.032 0 -0.0789474 -0.024 0 -0.0789474 -0.016 0 -0.0789474
          -0.008 0 -0.0789474 0 0 -0.0789474 -0.04 0.008 -0.0789474 -0.032 0.008 -0.0789474
          -0.024 0.008 -0.0789474 -0.016 0.008 -0.0789474 -0.008 0.008 -0.0789474 0 0.008 -0.0789474
          -0.04 0.016 -0.0789474 -0.032 0.016 -0.0789474 -0.024 0.016 -0.0789474 -0.016 0.016 -0.0789474
          -0.008 0.016 -0.0789474 0 0.016 -0.0789474 -0.04 0.024 -0.0789474 -0.032 0.024 -0.0789474
          -0.024 0.024 -0.0789474 -0.016 0.024 -0.0789474 -0.008 0.024 -0.0789474 0 0.024 -0.0789474
          -0.04 0.032 -0.0789474 -0.032 0.032 -0.0789474 -0.024 0.032 -0.0789474 -0.016 0.032 -0.0789474
          -0.008 0.032 -0.0789474 0 0.032 -0.0789474 -0.04 0.04 -0.0789474 -0.032 0.04 -0.0789474
          -0.024 0.04 -0.0789474 -0.016 0.04 -0.0789474 -0.008 0.04 -0.0789474 0 0.04 -0.0789474
        </DataArray>
      </Points>
      <Cells>
        <DataArray type="Int32" Name="connectivity" NumberOfComponents="1" format="ascii">
          0 1 3 2 4 5 7 6 1 8 9 3
          5 10 11 7 8 12 13 9 10 14 15 11
          12 16 17 13 14 18 19 15 16 20 21 17
          18 22 23 19 2 3 25 24 6 7 27 26
          3 9 28 25 7 11 29 27 9 13 30 28
          11 15 31 29 13 17 32 30 15 19 33 31
          17 21 34 32 19 23 35 33 24 25 37 36
          26 27 39 38 25 28 40 37 27 29 41 39
          28 30 42 40 29 31 43 41 30 32 44 42
          31 33 45 43 32 34 46 44 33 35 47 45
          36 37 49 48 38 39 51 50 37 40 52 49
          39 41 53 51 40 42 54 52 41 43 55 53
          42 44 56 54 43 45 57 55 44 46 58 56
          45 47 59 57 48 49 61 60 50 51 63 62
          49 52 64 61 51 53 65 63 52 54 66 64
          53 55 67 65 54 56 68 66 55 57 69 67
          56 58 70 68 57 59 71 69 60 61 73 72
          62 63 75 74 61 64 76 73 63 65 77 75
          64 66 78 76 65 67 79 77 66 68 80 78
          67 69 81 79 68 70 82 80 69 71 83 81
          72 73 85 84 74 75 87 86 73 76 88 85
          75 77 89 87 76 78 90 88 77 79 91 89
          78 80 92 90 79 81 93 91 80 82 94 92
          81 83 95 93 84 85 97 96 86 87 99 98
          85 88 100 97 87 89 101 99 88 90 102 100
          89 91 103 101 90 92 104 102 91 93 105 103
          92 94 106 104 93 95 107 105 96 97 109 108
          98 99 111 110 97 100 112 109 99 101 113 111
          100 102 114 112 101 103 115 113 102 104 116 114
          103 105 117 115 104 106 118 116 105 107 119 117
          108 109 121 120 110 111 123 122 109 112 124 121
          111 113 125 123 112 114 126 124 113 115 127 125
          114 116 128 126 115 117 129 127 116 118 130 128
          117 119 131 129 4 5 7 6 132 133 135 134
          5 10 11 7 133 136 137 135 10 14 15 11
          136 138 139 137 14 18 19 15 138 140 141 139
          18 22 23 19 140 142 143 141 6 7 27 26
          134 135 145 144 7 11 29 27 135 137 146 145
          11 15 31 29 137 139 147 146 15 19 33 31
          139 141 148 147 19 23 35 33 141 143 149 148
          26 27 39 38 144 145 151 150 27 29 41 39
          145 146 152 151 29 31 43 41 146 147 153 152
          31 33 45 43 147 148 154 153 33 35 47 45
          148 149 155 154 38 39 51 50 150 151 157 156
          39 41 53 51 151 152 158 157 41 43 55 53
          152 153 159 158 43 45 57 55 153 154 160 159
          45 47 59 57 154 155 161 160 50 51 63 62
          156 157 163 162 51 53 65 63 157 158 164 163
          53 55 67 65 158 159 165 164 55 57 69 67
          159 160 166 165 57 59 71 69 160 161 167 166
          62 63 75 74 162 163 169 168 63 65 77 75
          163 164 170 169 65 67 79 77 164 165 171 170
          67 69 81 79 165 166 172 171 69 71 83 81
          166 167 173 172 74 75 87 86 168 169 175 174
          75 77 89 87 169 170 176 175 77 79 91 89
          170 171 177 176 79 81 93 91 171 172 178 177
          81 83 95 93 172 173 179 178 86 87 99 98
          174 175 181 180 87 89 101 99 175 176 182 181
          89 91 103 101 176 177 183 182 91 93 105 103
          177 178 184 183 93 95 107 105 178 179 185 184
          98 99 111 110 180 181 187 186 99 101 113 111
          181 182 188 187 101 103 115 113 182 183 189 188
          103 105 117 115 183 184 190 189 105 107 119 117
          184 185 191 190 110 111 123 122 186 187 193 192
          111 113 125 123 187 188 194 193 113 115 127 125