<?xml version="1.0"?>
<VTKFile type="UnstructuredGrid" version="0.1" byte_order="LittleEndian">
  <UnstructuredGrid>
    <Piece NumberOfCells="735" NumberOfPoints="1024">
      <CellData Scalars="p (Pa)">
        <DataArray type="Float32" Name="p (Pa)" NumberOfComponents="1" format="ascii">
          24109.1 23292.2 21953.8 20699.8 20181.4 20358.2 20661.2 24081.8 23209.4 21752.7 20357.4 19829.9
          20118.7 20508.2 24203.5 23306.3 21784.9 20289.8 19754.2 20143.9 20604.1 24630.4 23828.4 22503.9
          21254.7 20777.6 21020.8 21378.6 25287.7 24635.7 23595.7 22665.7 22302.5 22427.5 22654 25959.1
          25449.8 24660.9 23977.5 23696.1 23752 23888.6 26379.8 25953.6 25303.4 24745.8 24503.1 24527.2
          24621.5 22540.8 21419.2 19520.4 17707.7 17165.4 17709.7 18306.2 22430.1 21177.6 18964.3 16699.4
          16159.4 17070.8 17906.4 22480.3 21136.8 18663.8 15898.8 15280.1 16657.4 17752.4 22951.1 21768.1
          19712.8 17670.6 17134.3 17883.1 18693 23737.2 22792 21244.7 19887.7 19568.2 19973.1 20452.8
          24582.6 23876.1 22777.1 21874.2 21640 21863.8 22141.7 25122.8 24555 23695.5 23003 22795.2
          22935.9 23124.5 19431.2 17566.1 14177.2 10681 10238.9 11962.9 13381.5 19104.1 16862.8 12384.1
          6771.35 6597.52 9999.76 12266.9 18951.4 16372.6 10686.7 1451.76 693.275 7678.36 11238.8 19500.2
          17286.4 13000.7 8010.55 7433.85 10050.8 12531.4 20553.3 18787.3 15665.8 12942.5 13078.2 14389.1
          15672.8 21820 20591.3 18624.1 17121.2 17159.7 17884.1 18559.7 22653 21733 20338.5 19315.7
          19261.4 19726.4 20161.2 14737 11422.3 4651.9 -3762.41 -3056.38 2049.2 5369.86 13964.5 9585.41
          -1259.85 -22839.1 -17693.4 -3800.52 2550.75 13349.6 7818.3 -9208.32 -72193 -71924.9 -14957.7 -1239
          13959.1 9344.79 -1398.12 -18956.2 -18394.7 -9428.33 260.49 15372.8 11443.6 2968.86 -4759.03 -582.117
          3414.43 7194.62 17504.5 15061.3 10786.9 7715.22 9144.7 11187.9 12842.3 18936.6 17290.6 14719
          13005.1 13513.3 14739.1 15702 8659.96 2919.1 -10925.3 -35551.5 -27114.3 -13169 -6131.01 7135.65
          -1349.71 -31102.1 -166437 -94505 -28924.6 -12242.4 5689.96 -6259.36 -74470.9 -1.24453e+06 -1.16707e+06 -88834
          -23924.7 6140.38 -3746.6 -34474.9 -129419 -106872 -89989.2 -26318.6 7690.05 -2811.53 -40604.9 -82503.3
          -31520.2 -19955 -6997.52 11595.2 6343.58 -4997.25 -13183.5 -4429.9 912.753 4893.01 14167.3 11162.7
          6085.62 2939.4 5270.62 8085.17 10042.5 1931.04 -6891.76 -32186.6 -106515 -61445.5 -33535.8 -21123.2
          -478.806 -14697.5 -90524.9 -1.02111e+06 -187762 -60162.7 -30827.2 -2674.44 -20434.2 -108458 -43009 -1.21953e+06
          -169974 -54531.3 -3141.36 -22784 -114167 -744106 -285630 -1.24238e+06 -101584 -2558.11 -37535.8 -351030
          -1.18414e+06 -112906 -86213.8 -28381.5 4852.29 -6308.76 -43413 -77265.5 -25246.9 -12872.1 -4003.8 9232.55
          4191.33 -5562.91 -11434.1 -4362.37 997.578 4368.91 -4354.69 -15400.1 -46070.4 -129185 -120734 -65846.5
          -41696.9 -7446.15 -24938.9 -108553 -985866 -831808 -113917 -52394.5 -10221.6 -32770.5 -140101 -1.24039e+06
          -192235 -205235 -77618.1 -10573 -37294.5 -154170 -17546.8 -985235 -1.25543e+06 -125033 -10225.6 -74028.6
          -1.2424e+06 -894810 -163045 -101872 -37485.9 406.399 -15231.6 -80886.2 -99845.8 -36430.3 -19142 -8735.39
          6119.64 -174.123 -13166.4 -19186 -9883.87 -3020.24 984.59 -9746.01 -23257.7 -58813.4 -102847 -137205
          -161546 -78522.2 -13544.5 -34934 -130042 -241891 -285473 -131571 -76611.6 -16263.1 -46317.6 -189393
          -1.10818e+06 -915581 -190527 -89344.8 -12617.7 -36083.6 -126485 -10743.6 -233171 -152710 -69252.7 -7119.39
          -29374.6 -133988 -829305 -115504 -49865.2 -28724.3 1482.94 -8127.29 -32997 -81010.1 -30003 -14449.9
          -7604.29 6366.39 1378.05 -7921.18 -15430.2 -8421.92 -2453.92 844.691 -13388.1 -31002.2 -104217 -133393
          -284630 -1.27651e+06 -180026 -17741.8 -40602.4 -206339 -304492 -1.30279e+06 -252526 -124913 -21537.8 -89324.9
          -1.02712e+06 -1.27792e+06 -1.36348e+06 -204760 -152478 -11832.8 -34901.5 -142520 -923190 -188690 -85275.6 -64331.8
          -2763.1 -14169.3 -45171.1 -127684 -55510 -31941.2 -23416.2 4651.48 -996.42 -12368.1 -25830.7 -16008.5
          -8561.42 -4837.71 8580.11 5176.93 -627.652 -5229.06 -2953.73 457.687 2556.13 -12740.8 -27425.2 -67660.6
          -157659 -501405 -927722 -232985 -16515.3 -40133 -140351 -278854 -1.32823e+06 -332219 -211086 -17924.3
          -53140 -211352 -1.33154e+06 -1.36238e+06 -267752 -316981 -8128.99 -24010.7 -69126.2 -174265 -143718 -83937.2
          -103201 1313.26 -5941.61 -21389.3 -41610.2 -35454.2 -25467.2 -23138.3 7904.82 4222.33 -2354.54 -8534.83
          -7359.14 -4179.77 -2381.01 11200.1 8834.57 4976.38 1844.81 1988.16 3566.28 4725.32 -10209.5 -22576.2
          -53387.1 -109377 -261321 -343547 -179094 -13476.6 -35566.2 -123099 -237414 -141522 -389088 -250851
          -16050 -78430.9 -1.08257e+06 -1.31262e+06 -1.35827e+06 -464644 -1.16616e+06 -4877.3 -21311.2 -87851.7 -130670 -134615
          -111434 -110130 4510.23 -1441.13 -14277.4 -25903 -27458.4 -22650.6 -20408.1 10542.5 7714.37 2780.87
          -1615.34 -2447.22 -987.68 134.336 13451.5 11627.7 8669.98 6124.49 5477.93 6157.08 6838.76 -7035.22
          -17292.2 -42470.6 -96001.8 -256715 -1.25465e+06 -195907 -8643.94 -23255.9 -67245.1 -207230 -1.33665e+06 -1.35226e+06
          -203185 -8229.92 -29669.5 -135391 -820846 -1.36154e+06 -238924 -158988 -506.42 -10746.7 -38799.1 -105207
          -120509 -63391.9 -49183.9 7200.99 2553.31 -6859.21 -18588.2 -21957.8 -15432.7 -11952.8 12500.7 10125.3
          5979.26 1895.89 579.269 1873.68 3017.04 15108.9 13540.5 10968.1 8610.27 7735.78 8167.21 8728.28
          -4748.5 -14374.8 -39233.9 -94949.4 -211695 -196466 -96948.2 -5435.46 -17804 -57187.7 -204110 -1.33588e+06
          -245789 -98888.2 -3679.5 -16330.9 -55549.2 -192359 -1.35279e+06 -154622 -71474.1 2276.75 -5683.44 -25235.1
          -62549.5 -110222 -47682 -30330.6 8851.9 4643.02 -3905.78 -14924.2 -19222.3 -11244.7 -6773.21 13685.5
          11417.3 7375.18 3227.21 2032.84 3715.65 5129.16 16129.1 14619.2 12101.7 9740.04 8925.49 9465.7
          10103.5 -3638.15 -13776 -43651.3 -137591 -181702 -97521 -62363.1 -4257.8 -18614.1 -95197.8 -1.00446e+06
          -1.34159e+06 -159115 -67171 -2279.19 -15198.8 -61010.4 -257802 -1.3532e+06 -137477 -52957.1 3013.04 -6075.06
          -33458.6 -119659 -116351 -43198.9 -23642.1 9349.11 4553.7 -6457.18 -24091.5 -21210.3 -9867.71 -4325.68
          14146.6 11660.7 6958.16 1784.64 1826.17 4450.47 6270.85 16589.6 14995.5 12269.1 9690.86 9191.89
          10068.5 10881.2 -3047.51 -12516.9 -36698.4 -82836.3 -102501 -69250.7 -49183.3 -3691.19 -16503.5 -59485.5
          -203386 -236275 -94228.8 -53002.5 -2439.06 -18711.3 -107836 -1.36178e+06 -1.35063e+06 -129559 -46748.2 2494.21
          -10608.7 -84957.2 -1.32509e+06 -148384 -43558.8 -21501.2 9142.73 3095.18 -14762.6 -72431.1 -27919.7 -10199.8
          -3534.93 14152.1 11311.7 5406.43 -2555.15 536.447 4443.23 6657.46 16676 14958.7 11926.3 8963.8
          8933.63 10181.6 11156.3
        </DataArray>
        <DataArray type="Float32" Name="saturation" NumberOfComponents="1" format="ascii">
          0.289699 0.289038 0.287979 0.287013 0.28662 0.286754 0.286983 0.289677 0.288972 0.287823 0.286753 0.286356
          0.286573 0.286867 0.289776 0.28905 0.287848 0.286702 0.2863 0.286592 0.28694 0.290127 0.289471 0.288411
          0.287437 0.287072 0.287258 0.287533 0.290673 0.290132 0.289283 0.288539 0.288252 0.288351 0.28853 0.291239
          0.290809 0.290152 0.289592 0.289364 0.289409 0.28952 0.291598 0.291234 0.290686 0.290222 0.290022 0.290042
          0.29012 0.28844 0.287564 0.286126 0.284802 0.284415 0.284803 0.285234 0.288353 0.287378 0.285715 0.284086
          0.283707 0.284348 0.284945 0.288392 0.287347 0.285494 0.283526 0.2831 0.284056 0.284834 0.288766 0.287835
          0.286269 0.284775 0.284393 0.284928 0.285516 0.289397 0.288639 0.28743 0.2864 0.286161 0.286464 0.286825
          0.290088 0.28951 0.288627 0.287917 0.287735 0.287909 0.288126 0.290536 0.290065 0.289363 0.288807 0.288642
          0.288754 0.288904 0.286059 0.284701 0.282352 0.28008 0.279803 0.280896 0.281822 0.285817 0.284201 0.281169
          0.277701 0.277599 0.279654 0.281093 0.285705 0.283856 0.280084 0.274708 0.274302 0.278238 0.280433 0.286111
          0.284501 0.281571 0.278437 0.278093 0.279685 0.281265 0.286901 0.285585 0.283365 0.281533 0.281622 0.282495
          0.28337 0.287875 0.28693 0.285465 0.284383 0.284411 0.284929 0.285418 0.288529 0.287807 0.286739 0.285974
          0.285934 0.286279 0.286605 0.28273 0.28055 0.276477 0.272014 0.272366 0.275031 0.276886 0.28221 0.279397
          0.273279 0.263752 0.265769 0.271995 0.275305 0.281801 0.278322 0.269422 0.249517 0.249577 0.2669 0.27329
          0.282206 0.279248 0.273208 0.265261 0.265486 0.269321 0.274073 0.283164 0.280563 0.275535 0.271524 0.273631
          0.275782 0.277951 0.284656 0.282951 0.280147 0.27826 0.279126 0.280401 0.281468 0.285694 0.284504 0.282718
          0.281574 0.28191 0.282731 0.28339 0.27883 0.275507 0.268647 0.259302 0.262176 0.267662 0.270861 0.277916
          0.273233 0.260781 0.234903 0.245047 0.261534 0.268065 0.277071 0.270799 0.249019 0.204548 0.205219 0.246103
          0.263344 0.277332 0.272022 0.259652 0.239487 0.242907 0.245884 0.262463 0.278245 0.272489 0.257713 0.247343
          0.260638 0.264866 0.270449 0.28066 0.27745 0.271407 0.267656 0.271685 0.274419 0.276614 0.282346 0.280385
          0.2773 0.275518 0.276829 0.278482 0.27968 0.274967 0.270499 0.260413 0.242966 0.252017 0.259962 0.26441
          0.273685 0.267009 0.245783 0.20668 0.232698 0.252333 0.260875 0.272558 0.264678 0.242647 0.256989 0.204758
          0.234518 0.25377 0.272323 0.263773 0.241738 0.21051 0.225186 0.204566 0.243796 0.272617 0.258667 0.221675
          0.205066 0.241935 0.246608 0.261725 0.27659 0.270776 0.256869 0.248423 0.262854 0.267791 0.271895 0.27918
          0.276216 0.271133 0.268421 0.271718 0.274464 0.276316 0.271722 0.266714 0.256094 0.23952 0.240738 0.250962
          0.257381 0.270238 0.262967 0.242632 0.207079 0.209101 0.241777 0.254338 0.268962 0.260217 0.238049 0.204583
          0.232268 0.231078 0.248348 0.268804 0.258743 0.236303 0.265829 0.207086 0.204459 0.240109 0.26896 0.249115
          0.204566 0.208214 0.235279 0.243747 0.258682 0.27415 0.266785 0.247671 0.244097 0.259018 0.265187 0.269639
          0.27732 0.273844 0.267664 0.26517 0.269115 0.272384 0.274457 0.269177 0.263594 0.25267 0.243581 0.238428
          0.235448 0.248159 0.267501 0.259502 0.2394 0.228116 0.225195 0.239189 0.248561 0.266355 0.256023 0.23254
          0.205774 0.207941 0.232431 0.246006 0.267901 0.25913 0.239901 0.268728 0.228773 0.236477 0.250176 0.270391
          0.261377 0.238859 0.209138 0.24153 0.255026 0.261605 0.274725 0.26992 0.260141 0.247646 0.261159 0.267114
          0.270164 0.277464 0.274668 0.270016 0.266701 0.269783 0.272669 0.274383 0.267568 0.260815 0.243349 0.23894
          0.225247 0.204289 0.233467 0.265749 0.257714 0.23098 0.224081 0.204083 0.227351 0.240127 0.264249 0.24601
          0.206614 0.204278 0.203631 0.23112 0.236505 0.268245 0.259513 0.237737 0.207843 0.232608 0.246792 0.25132
          0.272513 0.267234 0.256354 0.239731 0.253514 0.260496 0.263534 0.276476 0.273415 0.26801 0.26264 0.26646
          0.269719 0.271485 0.278781 0.276776 0.273607 0.271295 0.272418 0.274177 0.275308 0.267848 0.262065 0.25054
          0.235894 0.216027 0.207785 0.228788 0.266251 0.257857 0.238016 0.225604 0.20389 0.222598 0.230568 0.265676
          0.254138 0.230545 0.203865 0.203639 0.226316 0.223393 0.269919 0.263312 0.250205 0.234061 0.237585 0.247056
          0.24352 0.274633 0.270951 0.264307 0.257408 0.259333 0.262773 0.263639 0.278374 0.276234 0.27272 0.269731
          0.270278 0.271808 0.272706 0.280408 0.278936 0.276661 0.27492 0.274998 0.275866 0.276518 0.268968 0.263852
          0.254072 0.242498 0.226745 0.222035 0.233562 0.26753 0.259297 0.24039 0.22845 0.237865 0.219985 0.227469
          0.266443 0.248178 0.20603 0.204008 0.203669 0.217183 0.205227 0.271466 0.264337 0.246291 0.239313 0.238774
          0.242168 0.242377 0.276396 0.273186 0.267188 0.262614 0.262053 0.263824 0.264688 0.279993 0.27826 0.275431
          0.273097 0.272673 0.27342 0.274006 0.281869 0.280681 0.278836 0.277323 0.276948 0.277341 0.277741 0.270431
          0.265932 0.257149 0.244777 0.227059 0.204465 0.231924 0.269681 0.263595 0.250636 0.230902 0.203827 0.203712
          0.23126 0.269872 0.261274 0.23867 0.209265 0.203645 0.228337 0.23574 0.27367 0.268726 0.25827 0.243183
          0.240772 0.251545 0.255214 0.277954 0.275306 0.270514 0.265408 0.264088 0.2667 0.268192 0.281245 0.279732
          0.277238 0.274948 0.274241 0.274936 0.275561 0.282983 0.281928 0.280261 0.2788 0.278273 0.278532 0.278871
          0.271529 0.267146 0.258135 0.244967 0.230515 0.231872 0.244607 0.271195 0.265724 0.253082 0.231177 0.203833
          0.227831 0.244264 0.272055 0.266327 0.253504 0.232257 0.203708 0.23625 0.249677 0.275155 0.271075 0.262858
          0.251748 0.242362 0.255635 0.261045 0.278947 0.276471 0.271943 0.266914 0.265155 0.268505 0.270555 0.282024
          0.280547 0.278058 0.275678 0.275022 0.275949 0.276748 0.283686 0.28265 0.280986 0.279492 0.278992 0.279323
          0.279718 0.272076 0.267401 0.256798 0.238377 0.233297 0.244506 0.251793 0.271769 0.265398 0.244922 0.206866
          0.203791 0.235726 0.250653 0.272758 0.266798 0.252124 0.226984 0.203705 0.238393 0.254187 0.275559 0.270887
          0.259988 0.240899 0.2414 0.256932 0.26345 0.279251 0.276421 0.270705 0.263282 0.264376 0.269122 0.271736
          0.282332 0.280702 0.277811 0.274888 0.27491 0.276362 0.277408 0.284008 0.282906 0.281094 0.279462 0.279155
          0.279696 0.280206 0.272371 0.267945 0.258933 0.247276 0.243639 0.250176 0.255215 0.272049 0.266256 0.252502
          0.231242 0.228536 0.245098 0.254175 0.272677 0.265359 0.242749 0.203643 0.203724 0.239468 0.2559 0.275274
          0.268788 0.246855 0.203914 0.237002 0.256826 0.264263 0.279124 0.275605 0.266982 0.249465 0.261889 0.268972
          0.272127 0.282336 0.280479 0.276907 0.272618 0.274219 0.276358 0.277634 0.284069 0.282881 0.280873 0.279015
          0.278997 0.279767 0.280381
        </DataArray>
        <DataArray type="Float32" Name="process rank" NumberOfComponents="1" format="ascii">
          0 0 0 0 0 0 0 0 0 0 0 0
          0 0 0 0 0 0 0 0 0 0 0 0
          0 0 0 0 0 0 0 0 0 0 0 0
          0 0 0 0 0 0 0 0 0 0 0 0
          0 0 0 0 0 0 0 0 0 0 0 0
          0 0 0 0 0 0 0 0 0 0 0 0
          0 0 0 0 0 0 0 0 0 0 0 0
          0 0 0 0 0 0 0 0 0 0 0 0
          0 0 0 0 0 0 0 0 0 0 0 0
          0 0 0 0 0 0 0 0 0 0 0 0
          0 0 0 0 0 0 0 0 0 0 0 0
          0 0 0 0 0 0 0 0 0 0 0 0
          0 0 0 0 0 0 0 0 0 0 0 0
          0 0 0 0 0 0 0 0 0 0 0 0
          0 0 0 0 0 0 0 0 0 0 0 0
          0 0 0 0 0 0 0 0 0 0 0 0
          0 0 0 0 0 0 0 0 0 0 0 0
          0 0 0 0 0 0 0 0 0 0 0 0
          0 0 0 0 0 0 0 0 0 0 0 0
          0 0 0 0 0 0 0 0 0 0 0 0
          0 0 0 0 0 0 0 0 0 0 0 0
          0 0 0 0 0 0 0 0 0 0 0 0
          0 0 0 0 0 0 0 0 0 0 0 0
          0 0 0 0 0 0 0 0 0 0 0 0
          0 0 0 0 0 0 0 0 0 0 0 0
          0 0 0 0 0 0 0 0 0 0 0 0
          0 0 0 0 0 0 0 0 0 0 0 0
          0 0 0 0 0 0 0 0 0 0 0 0
          0 0 0 0 0 0 0 0 0 0 0 0
          0 0 0 0 0 0 0 0 0 0 0 0
          0 0 0 0 0 0 0 0 0 0 0 0
          0 0 0 0 0 0 0 0 0 0 0 0
          0 0 0 0 0 0 0 0 0 0 0 0
          0 0 0 0 0 0 0 0 0 0 0 0
          0 0 0 0 0 0 0 0 0 0 0 0
          0 0 0 0 0 0 0 0 0 0 0 0
          0 0 0 0 0 0 0 0 0 0 0 0
          0 0 0 0 0 0 0 0 0 0 0 0
          0 0 0 0 0 0 0 0 0 0 0 0
          0 0 0 0 0 0 0 0 0 0 0 0
          0 0 0 0 0 0 0 0 0 0 0 0
          0 0 0 0 0 0 0 0 0 0 0 0
          0 0 0 0 0 0 0 0 0 0 0 0
          0 0 0 0 0 0 0 0 0 0 0 0
          0 0 0 0 0 0 0 0 0 0 0 0
          0 0 0 0 0 0 0 0 0 0 0 0
          0 0 0 0 0 0 0 0 0 0 0 0
          0 0 0 0 0 0 0 0 0 0 0 0
          0 0 0 0 0 0 0 0 0 0 0 0
          0 0 0 0 0 0 0 0 0 0 0 0
          0 0 0 0 0 0 0 0 0 0 0 0
          0 0 0 0 0 0 0 0 0 0 0 0
          0 0 0 0 0 0 0 0 0 0 0 0
          0 0 0 0 0 0 0 0 0 0 0 0
          0 0 0 0 0 0 0 0 0 0 0 0
          0 0 0 0 0 0 0 0 0 0 0 0
          0 0 0 0 0 0 0 0 0 0 0 0
          0 0 0 0 0 0 0 0 0 0 0 0
          0 0 0 0 0 0 0 0 0 0 0 0
          0 0 0 0 0 0 0 0 0 0 0 0
          0 0 0 0 0 0 0 0 0 0 0 0
          0 0 0
        </DataArray>
      </CellData>
      <Points>
        <DataArray type="Float32" Name="Coordinates" NumberOfComponents="3" format="ascii">
          -0.04 -0.04 -0.15 -0.0285714 -0.04 -0.15 -0.04 -0.0285714 -0.15 -0.0285714 -0.0285714 -0.15
          -0.04 -0.04 -0.14 -0.0285714 -0.04 -0.14 -0.04 -0.0285714 -0.14 -0.0285714 -0.0285714 -0.14
          -0.0171429 -0.04 -0.15 -0.0171429 -0.0285714 -0.15 -0.0171429 -0.04 -0.14 -0.0171429 -0.0285714 -0.14
          -0.00571429 -0.04 -0.15 -0.00571429 -0.0285714 -0.15 -0.00571429 -0.04 -0.14 -0.00571429 -0.0285714 -0.14
          0.00571429 -0.04 -0.15 0.00571429 -0.0285714 -0.15 0.00571429 -0.04 -0.14 0.00571429 -0.0285714 -0.14
          0.0171429 -0.04 -0.15 0.0171429 -0.0285714 -0.15 0.0171429 -0.04 -0.14 0.0171429 -0.0285714 -0.14
          0.0285714 -0.04 -0.15 0.0285714 -0.0285714 -0.15 0.0285714 -0.04 -0.14 0.0285714 -0.0285714 -0.14
          0.04 -0.04 -0.15 0.04 -0.0285714 -0.15 0.04 -0.04 -0.14 0.04 -0.0285714 -0.14
          -0.04 -0.0171429 -0.15 -0.0285714 -0.0171429 -0.15 -0.04 -0.0171429 -0.14 -0.0285714 -0.0171429 -0.14
          -0.0171429 -0.0171429 -0.15 -0.0171429 -0.0171429 -0.14 -0.00571429 -0.0171429 -0.15 -0.00571429 -0.0171429 -0.14
          0.00571429 -0.0171429 -0.15 0.00571429 -0.0171429 -0.14 0.0171429 -0.0171429 -0.15 0.0171429 -0.0171429 -0.14
          0.0285714 -0.0171429 -0.15 0.0285714 -0.0171429 -0.14 0.04 -0.0171429 -0.15 0.04 -0.0171429 -0.14
          -0.04 -0.00571429 -0.15 -0.0285714 -0.00571429 -0.15 -0.04 -0.00571429 -0.14 -0.0285714 -0.00571429 -0.14
          -0.0171429 -0.00571429 -0.15 -0.0171429 -0.00571429 -0.14 -0.00571429 -0.00571429 -0.15 -0.00571429 -0.00571429 -0.14
          0.00571429 -0.00571429 -0.15 0.00571429 -0.00571429 -0.14 0.0171429 -0.00571429 -0.15 0.0171429 -0.00571429 -0.14
          0.0285714 -0.00571429 -0.15 0.0285714 -0.00571429 -0.14 0.04 -0.00571429 -0.15 0.04 -0.00571429 -0.14
          -0.04 0.00571429 -0.15 -0.0285714 0.00571429 -0.15 -0.04 0.00571429 -0.14 -0.0285714 0.00571429 -0.14
          -0.0171429 0.00571429 -0.15 -0.0171429 0.00571429 -0.14 -0.00571429 0.00571429 -0.15 -0.00571429 0.00571429 -0.14
          0.00571429 0.00571429 -0.15 0.00571429 0.00571429 -0.14 0.0171429 0.00571429 -0.15 0.0171429 0.00571429 -0.14
          0.0285714 0.00571429 -0.15 0.0285714 0.00571429 -0.14 0.04 0.00571429 -0.15 0.04 0.00571429 -0.14
          -0.04 0.0171429 -0.15 -0.0285714 0.0171429 -0.15 -0.04 0.0171429 -0.14 -0.0285714 0.0171429 -0.14
          -0.0171429 0.0171429 -0.15 -0.0171429 0.0171429 -0.14 -0.00571429 0.0171429 -0.15 -0.00571429 0.0171429 -0.14
          0.00571429 0.0171429 -0.15 0.00571429 0.0171429 -0.14 0.0171429 0.0171429 -0.15 0.0171429 0.0171429 -0.14
          0.0285714 0.0171429 -0.15 0.0285714 0.0171429 -0.14 0.04 0.0171429 -0.15 0.04 0.0171429 -0.14
          -0.04 0.0285714 -0.15 -0.0285714 0.0285714 -0.15 -0.04 0.0285714 -0.14 -0.0285714 0.0285714 -0.14
          -0.0171429 0.0285714 -0.15 -0.0171429 0.0285714 -0.14 -0.00571429 0.0285714 -0.15 -0.00571429 0.0285714 -0.14
          0.00571429 0.0285714 -0.15 0.00571429 0.0285714 -0.14 0.0171429 0.0285714 -0.15 0.0171429 0.0285714 -0.14
          0.0285714 0.0285714 -0.15 0.0285714 0.0285714 -0.14 0.04 0.0285714 -0.15 0.04 0.0285714 -0.14
          -0.04 0.04 -0.15 -0.0285714 0.04 -0.15 -0.04 0.04 -0.14 -0.0285714 0.04 -0.14
          -0.0171429 0.04 -0.15 -0.0171429 0.04 -0.14 -0.00571429 0.04 -0.15 -0.00571429 0.04 -0.14
          0.00571429 0.04 -0.15 0.00571429 0.04 -0.14 0.0171429 0.04 -0.15 0.0171429 0.04 -0.14
          0.0285714 0.04 -0.15 0.0285714 0.04 -0.14 0.04 0.04 -0.15 0.04 0.04 -0.14
          -0.04 -0.04 -0.13 -0.0285714 -0.04 -0.13 -0.04 -0.0285714 -0.13 -0.0285714 -0.0285714 -0.13
          -0.0171429 -0.04 -0.13 -0.0171429 -0.0285714 -0.13 -0.00571429 -0.04 -0.13 -0.00571429 -0.0285714 -0.13
          0.00571429 -0.04 -0.13 0.00571429 -0.0285714 -0.13 0.0171429 -0.04 -0.13 0.0171429 -0.0285714 -0.13
          0.0285714 -0.04 -0.13 0.0285714 -0.0285714 -0.13 0.04 -0.04 -0.13 0.04 -0.0285714 -0.13
          -0.04 -0.0171429 -0.13 -0.0285714 -0.0171429 -0.13 -0.0171429 -0.0171429 -0.13 -0.00571429 -0.0171429 -0.13
          0.00571429 -0.0171429 -0.13 0.0171429 -0.0171429 -0.13 0.0285714 -0.0171429 -0.13 0.04 -0.0171429 -0.13
          -0.04 -0.00571429 -0.13 -0.0285714 -0.00571429 -0.13 -0.0171429 -0.00571429 -0.13 -0.00571429 -0.00571429 -0.13
          0.00571429 -0.00571429 -0.13 0.0171429 -0.00571429 -0.13 0.0285714 -0.00571429 -0.13 0.04 -0.00571429 -0.13
          -0.04 0.00571429 -0.13 -0.0285714 0.00571429 -0.13 -0.0171429 0.00571429 -0.13 -0.00571429 0.00571429 -0.13
          0.00571429 0.00571429 -0.13 0.0171429 0.00571429 -0.13 0.0285714 0.00571429 -0.13 0.04 0.00571429 -0.13
          -0.04 0.0171429 -0.13 -0.0285714 0.0171429 -0.13 -0.0171429 0.0171429 -0.13 -0.00571429 0.0171429 -0.13
          0.00571429 0.0171429 -0.13 0.0171429 0.0171429 -0.13 0.0285714 0.0171429 -0.13 0.04 0.0171429 -0.13
          -0.04 0.0285714 -0.13 -0.0285714 0.0285714 -0.13 -0.0171429 0.0285714 -0.13 -0.00571429 0.0285714 -0.13
          0.00571429 0.0285714 -0.13 0.0171429 0.0285714 -0.13 0.0285714 0.0285714 -0.13 0.04 0.0285714 -0.13
          -0.04 0.04 -0.13 -0.0285714 0.04 -0.13 -0.0171429 0.04 -0.13 -0.00571429 0.04 -0.13
          0.00571429 0.04 -0.13 0.0171429 0.04 -0.13 0.0285714 0.04 -0.13 0.04 0.04 -0.13
          -0.04 -0.04 -0.12 -0.0285714 -0.04 -0.12 -0.04 -0.0285714 -0.12 -0.0285714 -0.0285714 -0.12
          -0.0171429 -0.04 -0.12 -0.0171429 -0.0285714 -0.12 -0.00571429 -0.04 -0.12 -0.00571429 -0.0285714 -0.12
          0.00571429 -0.04 -0.12 0.00571429 -0.0285714 -0.12 0.0171429 -0.04 -0.12 0.0171429 -0.0285714 -0.12
          0.0285714 -0.04 -0.12 0.0285714 -0.0285714 -0.12 0.04 -0.04 -0.12 0.04 -0.0285714 -0.12
          -0.04 -0.0171429 -0.12 -0.0285714 -0.0171429 -0.12 -0.0171429 -0.0171429 -0.12 -0.00571429 -0.0171429 -0.12
          0.00571429 -0.0171429 -0.12 0.0171429 -0.0171429 -0.12 0.0285714 -0.0171429 -0.12 0.04 -0.0171429 -0.12
          -0.04 -0.00571429 -0.12 -0.0285714 -0.00571429 -0.12 -0.0171429 -0.00571429 -0.12 -0.00571429 -0.00571429 -0.12
          0.00571429 -0.00571429 -0.12 0.0171429 -0.00571429 -0.12 0.0285714 -0.00571429 -0.12 0.04 -0.00571429 -0.12
          -0.04 0.00571429 -0.12 -0.0285714 0.00571429 -0.12 -0.0171429 0.00571429 -0.12 -0.00571429 0.00571429 -0.12
          0.00571429 0.00571429 -0.12 0.0171429 0.00571429 -0.12 0.0285714 0.00571429 -0.12 0.04 0.00571429 -0.12
          -0.04 0.0171429 -0.12 -0.0285714 0.0171429 -0.12 -0.0171429 0.0171429 -0.12 -0.00571429 0.0171429 -0.12
          0.00571429 0.0171429 -0.12 0.0171429 0.0171429 -0.12 0.0285714 0.0171429 -0.12 0.04 0.0171429 -0.12
          -0.04 0.0285714 -0.12 -0.0285714 0.0285714 -0.12 -0.0171429 0.0285714 -0.12 -0.00571429 0.0285714 -0.12
          0.00571429 0.0285714 -0.12 0.0171429 0.0285714 -0.12 0.0285714 0.0285714 -0.12 0.04 0.0285714 -0.12
          -0.04 0.04 -0.12 -0.0285714 0.04 -0.12 -0.0171429 0.04 -0.12 -0.00571429 0.04 -0.12
          0.00571429 0.04 -0.12 0.0171429 0.04 -0.12 0.0285714 0.04 -0.12 0.04 0.04 -0.12
          -0.04 -0.04 -0.11 -0.0285714 -0.04 -0.11 -0.04 -0.0285714 -0.11 -0.0285714 -0.0285714 -0.11
          -0.0171429 -0.04 -0.11 -0.0171429 -0.0285714 -0.11 -0.00571429 -0.04 -0.11 -0.00571429 -0.0285714 -0.11
          0.00571429 -0.04 -0.11 0.00571429 -0.0285714 -0.11 0.0171429 -0.04 -0.11 0.0171429 -0.0285714 -0.11
          0.0285714 -0.04 -0.11 0.0285714 -0.0285714 -0.11 0.04 -0.04 -0.11 0.04 -0.0285714 -0.11
          -0.04 -0.0171429 -0.11 -0.0285714 -0.0171429 -0.11 -0.0171429 -0.0171429 -0.11 -0.00571429 -0.0171429 -0.11
          0.00571429 -0.0171429 -0.11 0.0171429 -0.0171429 -0.11 0.0285714 -0.0171429 -0.11 0.04 -0.0171429 -0.11
          -0.04 -0.00571429 -0.11 -0.0285714 -0.00571429 -0.11 -0.0171429 -0.00571429 -0.11 -0.00571429 -0.00571429 -0.11
          0.00571429 -0.00571429 -0.11 0.0171429 -0.00571429 -0.11 0.0285714 -0.00571429 -0.11 0.04 -0.00571429 -0.11
          -0.04 0.00571429 -0.11 -0.0285714 0.00571429 -0.11 -0.0171429 0.00571429 -0.11 -0.00571429 0.00571429 -0.11
          0.00571429 0.00571429 -0.11 0.0171429 0.00571429 -0.11 0.0285714 0.00571429 -0.11 0.04 0.00571429 -0.11
          -0.04 0.0171429 -0.11 -0.0285714 0.0171429 -0.11 -0.0171429 0.0171429 -0.11 -0.00571429 0.0171429 -0.11
          0.00571429 0.0171429 -0.11 0.0171429 0.0171429 -0.11 0.0285714 0.0171429 -0.11 0.04 0.0171429 -0.11
          -0.04 0.0285714 -0.11 -0.0285714 0.0285714 -0.11 -0.0171429 0.0285714 -0.11 -0.00571429 0.0285714 -0.11
          0.00571429 0.0285714 -0.11 0.0171429 0.0285714 -0.11 0.0285714 0.0285714 -0.11 0.04 0.0285714 -0.11
          -0.04 0.04 -0.11 -0.0285714 0.04 -0.11 -0.0171429 0.04 -0.11 -0.00571429 0.04 -0.11
          0.00571429 0.04 -0.11 0.0171429 0.04 -0.11 0.0285714 0.04 -0.11 0.04 0.04 -0.11
          -0.04 -0.04 -0.1 -0.0285714 -0.04 -0.1 -0.04 -0.0285714 -0.1 -0.0285714 -0.0285714 -0.1
          -0.0171429 -0.04 -0.1 -0.0171429 -0.0285714 -0.1 -0.00571429 -0.04 -0.1 -0.00571429 -0.0285714 -0.1
          0.00571429 -0.04 -0.1 0.00571429 -0.0285714 -0.1 0.0171429 -0.04 -0.1 0.0171429 -0.0285714 -0.1
          0.0285714 -0.04 -0.1 0.0285714 -0.0285714 -0.1 0.04 -0.04 -0.1 0.04 -0.0285714 -0.1
          -0.04 -0.0171429 -0.1 -0.0285714 -0.0171429 -0.1 -0.0171429 -0.0171429 -0.1 -0.00571429 -0.0171429 -0.1
          0.00571429 -0.0171429 -0.1 0.0171429 -0.0171429 -0.1 0.0285714 -0.0171429 -0.1 0.04 -0.0171429 -0.1
          -0.04 -0.00571429 -0.1 -0.0285714 -0.00571429 -0.1 -0.0171429 -0.00571429 -0.1 -0.00571429 -0.00571429 -0.1
          0.00571429 -0.00571429 -0.1 0.0171429 -0.00571429 -0.1 0.0285714 -0.00571429 -0.1 0.04 -0.00571429 -0.1
          -0.04 0.00571429 -0.1 -0.0285714 0.00571429 -0.1 -0.0171429 0.00571429 -0.1 -0.00571429 0.00571429 -0.1
          0.00571429 0.00571429 -0.1 0.0171429 0.00571429 -0.1 0.0285714 0.00571429 -0.1 0.04 0.00571429 -0.1
          -0.04 0.0171429 -0.1 -0.0285714 0.0171429 -0.1 -0.0171429 0.0171429 -0.1 -0.00571429 0.0171429 -0.1
          0.00571429 0.0171429 -0.1 0.0171429 0.0171429 -0.1 0.0285714 0.0171429 -0.1 0.04 0.0171429 -0.1
          -0.04 0.0285714 -0.1 -0.0285714 0.0285714 -0.1 -0.0171429 0.0285714 -0.1 -0.00571429 0.0285714 -0.1
          0.00571429 0.0285714 -0.1 0.0171429 0.0285714 -0.1 0.0285714 0.0285714 -0.1 0.04 0.0285714 -0.1
          -0.04 0.04 -0.1 -0.0285714 0.04 -0.1 -0.0171429 0.04 -0.1 -0.00571429 0.04 -0.1
          0.00571429 0.04 -0.1 0.0171429 0.04 -0.1 0.0285714 0.04 -0.1 0.04 0.04 -0.1
          -0.04 -0.04 -0.09 -0.0285714 -0.04 -0.09 -0.04 -0.0285714 -0.09 -0.0285714 -0.0285714 -0.09
          -0.0171429 -0.04 -0.09 -0.0171429 -0.0285714 -0.09 -0.00571429 -0.04 -0.09 -0.00571429 -0.0285714 -0.09
          0.00571429 -0.04 -0.09 0.00571429 -0.0285714 -0.09 0.0171429 -0.04 -0.09 0.0171429 -0.0285714 -0.09
          0.0285714 -0.04 -0.09 0.0285714 -0.0285714 -0.09 0.04 -0.04 -0.09 0.04 -0.0285714 -0.09
          -0.04 -0.0171429 -0.09 -0.0285714 -0.0171429 -0.09 -0.0171429 -0.0171429 -0.09 -0.00571429 -0.0171429 -0.09
          0.00571429 -0.0171429 -0.09 0.0171429 -0.0171429 -0.09 0.0285714 -0.0171429 -0.09 0.04 -0.0171429 -0.09
          -0.04 -0.00571429 -0.09 -0.0285714 -0.00571429 -0.09 -0.0171429 -0.00571429 -0.09 -0.00571429 -0.00571429 -0.09
          0.00571429 -0.00571429 -0.09 0.0171429 -0.00571429 -0.09 0.0285714 -0.00571429 -0.09 0.04 -0.00571429 -0.09
          -0.04 0.00571429 -0.09 -0.0285714 0.00571429 -0.09 -0.0171429 0.00571429 -0.09 -0.00571429 0.00571429 -0.09
          0.00571429 0.00571429 -0.09 0.0171429 0.00571429 -0.09 0.0285714 0.00571429 -0.09 0.04 0.00571429 -0.09
          -0.04 0.0171429 -0.09 -0.0285714 0.0171429 -0.09 -0.0171429 0.0171429 -0.09 -0.00571429 0.0171429 -0.09
          0.00571429 0.0171429 -0.09 0.0171429 0.0171429 -0.09 0.0285714 0.0171429 -0.09 0.04 0.0171429 -0.09
          -0.04 0.0285714 -0.09 -0.0285714 0.0285714 -0.09 -0.0171429 0.0285714 -0.09 -0.00571429 0.0285714 -0.09
          0.00571429 0.0285714 -0.09 0.0171429 0.0285714 -0.09 0.0285714 0.0285714 -0.09 0.04 0.0285714 -0.09
          -0.04 0.04 -0.09 -0.0285714 0.04 -0.09 -0.0171429 0.04 -0.09 -0.00571429 0.04 -0.09
          0.00571429 0.04 -0.09 0.0171429 0.04 -0.09 0.0285714 0.04 -0.09 0.04 0.04 -0.09
          -0.04 -0.04 -0.08 -0.0285714 -0.04 -0.08 -0.04 -0.0285714 -0.08 -0.0285714 -0.0285714 -0.08
          -0.0171429 -0.04 -0.08 -0.0171429 -0.0285714 -0.08 -0.00571429 -0.04 -0.08 -0.00571429 -0.0285714 -0.08
          0.00571429 -0.04 -0.08 0.00571429 -0.0285714 -0.08 0.0171429 -0.04 -0.08 0.0171429 -0.0285714 -0.08
          0.0285714 -0.04 -0.08 0.0285714 -0.0285714 -0.08 0.04 -0.04 -0.08 0.04 -0.0285714 -0.08
          -0.04 -0.0171429 -0.08 -0.0285714 -0.0171429 -0.08 -0.0171429 -0.0171429 -0.08 -0.00571429 -0.0171429 -0.08
          0.00571429 -0.0171429 -0.08 0.0171429 -0.0171429 -0.08 0.0285714 -0.0171429 -0.08 0.04 -0.0171429 -0.08
          -0.04 -0.00571429 -0.08 -0.0285714 -0.00571429 -0.08 -0.0171429 -0.00571429 -0.08 -0.00571429 -0.00571429 -0.08
          0.00571429 -0.00571429 -0.08 0.0171429 -0.00571429 -0.08 0.0285714 -0.00571429 -0.08 0.04 -0.00571429 -0.08