<?xml version="1.0"?>
<VTKFile type="UnstructuredGrid" version="0.1" byte_order="LittleEndian">
  <UnstructuredGrid>
    <Piece NumberOfCells="960" NumberOfPoints="1296">
      <CellData Scalars="p (Pa)">
        <DataArray type="Float32" Name="p (Pa)" NumberOfComponents="1" format="ascii">
          36696 36695.9 36695.4 36694 36692.4 36693.9 36695.3 36695.8 36696 36695.6 36694.2 36690.3
          36685.6 36689.9 36693.9 36695.4 36695.9 36695.3 36692.6 36685 36675.3 36683.7 36691.5 36694.7
          36696 36695.6 36693.9 36689.4 36684 36686.9 36691.9 36694.5 36696 36695.8 36694.9 36693
          36691.6 36692.4 36694.2 36695.3 36696 36695.9 36695.6 36694.9 36694.8 36695.1 36695.5 36695.8
          36696.1 36696 36695.9 36695.7 36695.8 36695.9 36696 36696 36696.1 36696.1 36696 36696
          36696 36696 36696 36696.1 36597.8 36597.1 36594 36585.7 36575.9 36585.3 36593.6 36596.7
          36597.5 36595.5 36586.9 36562.8 36532 36560.7 36585.1 36594.2 36597.1 36593.3 36576.5 36527.5
          36459.3 36519.4 36569.9 36589.3 36597.3 36594.8 36584.3 36556.3 36521.1 36539.2 36570.9 36588
          36597.5 36595.9 36589.9 36577.3 36570 36575.1 36586.1 36593.1 36597.7 36596.9 36594.3 36589.9
          36589.9 36591.8 36594.6 36596.5 36597.9 36597.6 36596.8 36595.6 36596 36596.7 36597.3 36597.7
          36597.9 36597.9 36597.7 36597.4 36597.5 36597.7 36597.8 36597.9 36498.9 36495.2 36479.1 36434.4
          36379.2 36432.8 36477.2 36493.3 36497.3 36486.7 36439.8 36303 36115.6 36293.2 36430.2 36479.6
          36494.9 36474 36378.5 36081.8 35609 36035.7 36339.7 36451.2 36496.2 36481.9 36422.1 36259.4
          36046.6 36144.7 36334.9 36439.9 36497 36486.6 36448.3 36368 36337.2 36367.3 36429.3 36471.3
          36498.3 36493.2 36475.6 36445.4 36451.6 36464.7 36480.4 36491.5 36499.3 36497.6 36492.1 36483.8
          36488 36492.4 36495.8 36498.1 36499.7 36499.2 36497.8 36495.8 36497.1 36498.4 36499.1 36499.5
          36398.1 36383.1 36318.2 36134.1 35894.8 36131.2 36311.8 36376 36391.4 36347.8 36150.2 35546.1
          34614.5 35515.1 36112.3 36318.3 36381.1 36291 35861.7 34391.9 31344.7 34186.3 35682.9 36187.9
          36385.7 36321.8 36051.6 35300 34256.9 34611.9 35568.9 36109.7 36387.4 36334 36128.8 35682.1
          35649.4 35791.2 36063 36266.3 36393.8 36365.9 36267.2 36091 36169.2 36244.1 36311.9 36363.2
          36399 36389.7 36358.9 36311 36342.7 36368.3 36383.5 36393.7 36401 36398.4 36390.3 36378.9
          36387.8 36395 36398.4 36400.3 36293.5 36251.8 36070.2 35545.5 34821.8 35556 36057.8 36232.7
          36274 36147.3 35560.5 33649.5 30091.1 33635.7 35464.7 36062.1 36241.7 35962.7 34549.6 28716.6
          7194.51 28105.7 33948.8 35624.9 36250.9 36039 35129.8 32513.2 28634.5 28493.9 32821.3 35210.9
          36249.3 36035.5 35143.8 32847.6 33689.4 34236 35049.7 35824.6 36271.9 36155 35713.2 34819.4
          35434.8 35788.1 35994.4 36173.4 36292.5 36253.7 36118.7 35891.6 36073.7 36191.7 36243 36277.3
          36300.5 36289.9 36255.4 36204.3 36248.5 36280.1 36292.4 36298.8 36187.2 36115.2 35809.2 34951.7
          33881.2 35022.8 35798 36083 36150.7 35922.6 34878.6 31486 26159 32012.1 34789.3 35780.4
          36084.5 35543 32709.3 19180.3 -15837.7 22721.3 31598.9 34872.7 36086.9 35606.5 33504.4 27269.6
          22352.1 25653.6 23239.3 33384.3 36065.5 35463.9 32500.5 19564 30010.9 32489.5 32834.9 35106.9
          36118.7 35772.7 34301.5 30225.7 33813.7 35124.4 35501 35928.5 36174.6 36060.9 35635.2 34800.1
          35553.3 35948 36073.7 36151.5 36196.7 36166.4 36062.3 35894.4 36049.3 36148.2 36181.2 36195.8
          36083.2 35999 35670.8 34808.2 33616.6 34608.9 35577.1 35948.2 36034.8 35769.7 34684 31534.4
          26131.8 31613.4 34653.1 35680.4 35944.8 35308.5 32431.3 21606.7 -11242.9 22170 32017.7 34953.1
          35934.2 35237.6 32049.1 20110 12469.9 7383.6 28386.7 34162 35910.1 35061.4 30871.5 12939.5
          26519.4 29628.2 33518.2 35283 35972.2 35391.4 32525.4 19915.9 31695.4 34367.2 35439.9 35881.6
          36058.3 35866.9 35083.8 33177 34944.9 35698.6 35966.5 36060.4 36093.4 36043.2 35861.6 35533.5
          35839.5 36017 36079.2 36098.4 35966.6 35839.9 35420.7 34504.3 32929.9 33040.5 34952.2 35688.7
          35879.9 35472.9 34074.8 31087.7 25160.6 30600.8 34257.9 35456.4 35726.7 34736.1 30853.9 21618.7
          -16076.2 21318.6 32220.6 34885.1 35797.2 35037.1 31964.9 22726.1 -2175.8 22212.4 32168.1 34923.8
          35830.3 35087.1 31454.3 15051.3 24998.8 31404.2 34504.1 35553.1 35914.8 35545.8 34013.1 30085.4
          32877.2 34740.2 35594.7 35882.4 35977.9 35863.4 35438.6 34620.7 35256.7 35722 35919.9 35982.6
          36000.7 35971.1 35869.9 35706 35841.8 35948.3 35991.4 36004.2 35835.8 35620.7 34959.5 33819.6
          31275.5 25858.9 33199.1 35129.7 35672.9 34909.6 32273.8 29033.2 23732.9 26860 32837.3 34732.4
          35364.6 33138.1 20676 9206.84 -17666.8 13518.6 30609.6 33654 35628.5 34679.2 31178.2 24616.6
          5365.02 26104.2 33019.9 34816.6 35786.6 35360 33767.2 30062.1 28905.1 32887.1 34933.2 35564.1
          35865.2 35706.8 35136.8 34009.8 34242.6 35162.8 35667.3 35829.2 35898.2 35854.2 35703.4 35444.4
          35559.8 35759.2 35863 35895.8 35908 35897.2 35861.9 35807.6 35840 35881.9 35902.3 35908.5
          35750.5 35580 35046.5 33823.3 30444.8 20933.6 31791.2 34536.8 35630.2 35110.3 33488.8 30474.1
          23707.8 17334.5 30234.7 33251.4 35433.1 34229.2 29936.5 21886.8 -7296.96 19034.1 28123.5 28639.5
          35589.7 34907.6 32610 27854.1 22954.8 29305.7 32816.6 33864 35729.5 35472.5 34618.2 32978.7
          32333 33952.6 34994.8 35362.6 35789.4 35715.8 35474 35048.3 35023.1 35398.4 35640.9 35728
          35807.8 35791 35736.9 35649 35663.6 35738 35783.7 35799.8 35812 35808.5 35797.2 35780.3
          35786.1 35800.3 35808.4 35811.2 35649.1 35468.7 34904.7 33742.7 31532 28755.3 32374 34458.4
          35519.4 34939.3 32971.4 29241.6 23245.7 15363.5 27211.8 32747 35296.6 33820.1 26834.9 13084.5
          -6827.62 -2235.83 13763.6 29965.5 35448.9 34545.8 30828.1 17572.2 23082.3 26844.4 30660.8 33719.7
          35621 35317.5 34228.5 31833.2 32552.7 33706.3 34633.2 35237.2 35692 35620.1 35379.9 34950.7
          35073.4 35333.3 35521.3 35627 35710.7 35697.5 35655 35587.1 35608.5 35654.8 35686.1 35701.9
          35714.3 35712.1 35705.1 35694.7 35698.5 35706.1 35711 35713.2 35574 35441.6 34962.1 33722.9
          31562.5 30317.9 32182.1 34377.8 35492.8 35087.7 33529.8 29089.4 20639.9 15688.7 23052.7 32592.7
          35362.3 34447.9 30356 13411.4 -33069 13445.3 27187.9 32878.7 35451.4 34879.6 32589.7 25687.7
          21886.3 28883.6 32749.7 34555.2 35557.9 35362.9 34657.3 33103.9 32662 34000.3 34914.9 35345.2
          35602.6 35556.7 35400.5 35105.8 35068.4 35310.6 35484.9 35565.1 35614.3 35606.1 35579.1 35532.8
          35532 35569.8 35596.9 35609.1 35616.5 35615.2 35610.9 35604.1 35604.7 35610.2 35614.2 35615.9
          35496.7 35416.4 35085.3 34126.7 32528.3 33041.4 34136.7 34986.7 35456.1 35222.3 34225 31115.7
          24750.1 28212.9 31960.5 34362.2 35392.4 34901.8 32674 24432.6 -6332.83 19766.5 31304.1 34317.6
          35425.9 35084.9 33711.6 30010.8 25432.1 30547.8 33864.3 35011.8 35482.9 35357.5 34892.3 33860.9
          33204.7 34295 35087.3 35382.5 35509.7 35478.7 35370 35156.4 35079.8 35284 35434.8 35492
          35517.1 35511.4 35492 35457.1 35450.5 35482.5 35505.8 35514.7 35518.6 35517.6 35514.5 35509.3
          35509 35513.7 35517 35518.3 35403.6 35331.9 35004.8 33964.2 32103.1 33737.3 34797 35218.7
          35370.1 35154.8 34142.6 30577.5 20939.9 30099.2 33778.3 34958.2 35306.9 34818.8 32460 23011.7
          -19730.5 22177.6 32519.1 34756.9 35292.5 34773.5 32517.8 25909.7 23268.8 30766.6 34161.2 35111.1
          35363.7 35151.3 34336.5 32556.9 32597.3 34209.4 35072 35332.4 35405.2 35350.3 35155.2 34793.5
          34865.9 35177.9 35349.7 35402.5 35417.7 35407.3 35372.1 35313.2 35331.3 35381.8 35409.3 35417.8
          35420.2 35418.5 35412.8 35404 35407.4 35415 35419.1 35420.3 35304.9 35231.4 34910.5 33985
          32707 34093.1 34948.4 35223.3 35263.4 35016.1 33916.5 30545.3 24846.7 31349.9 34254.7 35066.2
          35161.9 34476.2 31267.1 19608.3 -12401.8 25111.4 33129.6 34864.4 35070.3 33937.2 27945.2 -4130.81
          20291.7 30755.9 34225.2 35083.7 35207.8 34754.4 32870.2 27974.4 31410 33986.4 34989.2 35248.9
          35291.3 35177.3 34757.6 33950.8 34509.1 35034.2 35249.9 35306.5 35316.5 35295.3 35222.4 35102.4
          35186.8 35273.9 35310.3 35319.9 35321.6 35318.1 35306.6 35289.4 35301.8 35315.1 35320.8 35322.2
        </DataArray>
        <DataArray type="Float32" Name="saturation" NumberOfComponents="1" format="ascii">
          0.301554 0.301554 0.301554 0.301552 0.30155 0.301552 0.301554 0.301554 0.301554 0.301554 0.301552 0.301548
          0.301543 0.301548 0.301552 0.301554 0.301554 0.301554 0.301551 0.301542 0.301532 0.301541 0.30155 0.301553
          0.301554 0.301554 0.301552 0.301547 0.301541 0.301544 0.30155 0.301553 0.301554 0.301554 0.301553 0.301551
          0.30155 0.30155 0.301552 0.301554 0.301554 0.301554 0.301554 0.301553 0.301553 0.301553 0.301554 0.301554
          0.301554 0.301554 0.301554 0.301554 0.301554 0.301554 0.301554 0.301554 0.301554 0.301554 0.301554 0.301554
          0.301554 0.301554 0.301554 0.301554 0.301448 0.301447 0.301443 0.301434 0.301424 0.301434 0.301443 0.301446
          0.301447 0.301445 0.301436 0.30141 0.301376 0.301407 0.301434 0.301444 0.301447 0.301443 0.301425 0.301371
          0.301297 0.301363 0.301417 0.301438 0.301447 0.301444 0.301433 0.301403 0.301364 0.301384 0.301418 0.301437
          0.301447 0.301445 0.301439 0.301425 0.301417 0.301423 0.301435 0.301443 0.301448 0.301447 0.301444 0.301439
          0.301439 0.301441 0.301444 0.301446 0.301448 0.301447 0.301447 0.301445 0.301446 0.301446 0.301447 0.301447
          0.301448 0.301448 0.301447 0.301447 0.301447 0.301447 0.301448 0.301448 0.30134 0.301336 0.301319 0.30127
          0.301211 0.301269 0.301317 0.301334 0.301339 0.301327 0.301276 0.301129 0.300927 0.301118 0.301266 0.301319
          0.301336 0.301313 0.30121 0.300891 0.300387 0.300841 0.301168 0.301289 0.301337 0.301322 0.301257 0.301082
          0.300853 0.300958 0.301163 0.301276 0.301338 0.301327 0.301285 0.301199 0.301165 0.301198 0.301265 0.30131
          0.30134 0.301334 0.301315 0.301282 0.301289 0.301303 0.30132 0.301332 0.301341 0.301339 0.301333 0.301324
          0.301329 0.301333 0.301337 0.301339 0.301341 0.301341 0.301339 0.301337 0.301338 0.30134 0.301341 0.301341
          0.301231 0.301215 0.301145 0.300947 0.300691 0.300944 0.301138 0.301207 0.301224 0.301177 0.300964 0.30032
          0.299346 0.300287 0.300923 0.301145 0.301213 0.301116 0.300655 0.299116 0.296093 0.298905 0.300465 0.301005
          0.301218 0.301149 0.300858 0.300061 0.298977 0.299343 0.300344 0.300921 0.30122 0.301162 0.300941 0.300464
          0.30043 0.30058 0.300871 0.301089 0.301227 0.301196 0.30109 0.300901 0.300985 0.301065 0.301138 0.301194
          0.301232 0.301222 0.301189 0.301137 0.301171 0.301199 0.301215 0.301226 0.301234 0.301232 0.301223 0.301211
          0.30122 0.301228 0.301232 0.301234 0.301118 0.301073 0.300878 0.300319 0.299561 0.300331 0.300865 0.301053
          0.301097 0.300961 0.300335 0.298359 0.29491 0.298345 0.300234 0.30087 0.301063 0.300763 0.299278 0.293651
          0.277951 0.293104 0.298663 0.300404 0.301072 0.300845 0.299882 0.297226 0.293577 0.293451 0.29753 0.299967
          0.301071 0.300841 0.299897 0.297557 0.298399 0.298956 0.299798 0.300616 0.301095 0.300969 0.300497 0.299558
          0.300203 0.300577 0.300797 0.300989 0.301117 0.301075 0.30093 0.300687 0.300882 0.301009 0.301064 0.301101
          0.301126 0.301114 0.301077 0.301022 0.30107 0.301104 0.301117 0.301124 0.301004 0.300927 0.300599 0.299696
          0.298594 0.29977 0.300588 0.300892 0.300965 0.30072 0.29962 0.296228 0.291409 0.296736 0.299527 0.300569
          0.300894 0.300317 0.29742 0.285874 0.266531 0.288583 0.296337 0.299614 0.300896 0.300384 0.298213 0.292367
          0.288291 0.290981 0.288996 0.298092 0.300873 0.300233 0.297214 0.286158 0.294835 0.297203 0.297544 0.299858
          0.30093 0.300561 0.299023 0.295035 0.298525 0.299876 0.300272 0.300727 0.30099 0.300868 0.300415 0.299538
          0.300328 0.300748 0.300882 0.300966 0.301014 0.300982 0.30087 0.30069 0.300856 0.300962 0.300997 0.301013
          0.300892 0.300802 0.300452 0.299546 0.298326 0.29934 0.300353 0.300748 0.30084 0.300557 0.299418 0.296275
          0.291386 0.296351 0.299385 0.300463 0.300744 0.300069 0.297146 0.287709 0.268506 0.288148 0.296742 0.299697
          0.300733 0.299995 0.296772 0.286566 0.281225 0.278063 0.293355 0.29888 0.300707 0.29981 0.295642 0.281531
          0.291718 0.294482 0.298227 0.300043 0.300773 0.300157 0.297238 0.286421 0.29643 0.299091 0.300208 0.300677
          0.300866 0.300661 0.299834 0.297884 0.299689 0.300482 0.300767 0.300868 0.300903 0.300849 0.300655 0.300307
          0.300632 0.300821 0.300888 0.300909 0.300767 0.300632 0.300188 0.299232 0.297638 0.297748 0.299696 0.300471
          0.300675 0.300243 0.298791 0.295847 0.290567 0.295387 0.298978 0.300225 0.300512 0.299472 0.295625 0.287719
          0.266432 0.287487 0.296939 0.299626 0.300587 0.299785 0.29669 0.288587 0.272811 0.288182 0.296888 0.299667
          0.300622 0.299837 0.296198 0.282944 0.290432 0.29615 0.299232 0.300328 0.300712 0.30032 0.298728 0.294905
          0.297586 0.299476 0.300372 0.300678 0.300779 0.300657 0.300207 0.299352 0.300015 0.300507 0.300718 0.300784
          0.300804 0.300772 0.300664 0.30049 0.300634 0.300748 0.300794 0.300808 0.300628 0.300399 0.299704 0.298531
          0.296026 0.291154 0.297906 0.299882 0.300455 0.299652 0.296991 0.293938 0.289394 0.292011 0.297546 0.299468
          0.300129 0.297845 0.286995 0.279164 0.26578 0.281913 0.295395 0.298364 0.300407 0.299413 0.295934 0.290116
          0.276884 0.291362 0.297728 0.299555 0.300575 0.300124 0.298478 0.294883 0.293822 0.297596 0.299677 0.300339
          0.300659 0.300491 0.299889 0.298725 0.298963 0.299916 0.300449 0.300621 0.300694 0.300647 0.300487 0.300213
          0.300335 0.300546 0.300657 0.300692 0.300705 0.300693 0.300656 0.300598 0.300632 0.300677 0.300699 0.300705
          0.300537 0.300356 0.299795 0.298535 0.29524 0.287191 0.296522 0.299265 0.300409 0.299861 0.298197 0.295268
          0.289373 0.284535 0.295044 0.297959 0.300201 0.298949 0.294766 0.287927 0.270308 0.285766 0.29312 0.293582
          0.300366 0.29965 0.297322 0.292881 0.288769 0.294186 0.297526 0.298576 0.300515 0.300242 0.299349 0.297687
          0.297049 0.298666 0.299741 0.300126 0.300578 0.3005 0.300244 0.299797 0.29977 0.300164 0.300421 0.300513
          0.300598 0.30058 0.300523 0.300429 0.300445 0.300524 0.300572 0.300589 0.300602 0.300599 0.300587 0.300569
          0.300575 0.30059 0.300599 0.300602 0.300429 0.300238 0.299647 0.298453 0.296272 0.293686 0.29709 0.299184
          0.300292 0.299683 0.297679 0.294127 0.289001 0.283157 0.292317 0.297457 0.300057 0.298532 0.29199 0.281627
          0.270529 0.27278 0.282076 0.294793 0.300217 0.299275 0.295601 0.284705 0.28887 0.291998 0.295443 0.29843
          0.3004 0.300079 0.298948 0.296563 0.297265 0.298416 0.299365 0.299994 0.300475 0.300398 0.300145 0.299695
          0.299823 0.300096 0.300294 0.300406 0.300495 0.300481 0.300436 0.300364 0.300386 0.300435 0.300469 0.300485
          0.300499 0.300496 0.300489 0.300478 0.300482 0.30049 0.300495 0.300497 0.30035 0.30021 0.299707 0.298433
          0.296302 0.295121 0.296902 0.299102 0.300264 0.299838 0.298238 0.293989 0.286967 0.283381 0.288847 0.297305
          0.300126 0.299174 0.295157 0.281842 0.260117 0.281865 0.292296 0.297587 0.30022 0.299621 0.297302 0.291009
          0.287927 0.293802 0.29746 0.299284 0.300333 0.300127 0.29939 0.297811 0.297373 0.298715 0.299657 0.300108
          0.30038 0.300331 0.300166 0.299857 0.299818 0.300072 0.300255 0.30034 0.300392 0.300384 0.300355 0.300306
          0.300305 0.300345 0.300374 0.300387 0.300395 0.300393 0.300389 0.300382 0.300382 0.300388 0.300392 0.300394
          0.300268 0.300183 0.299835 0.298844 0.297241 0.297749 0.298854 0.299732 0.300225 0.299979 0.298945 0.295874
          0.290226 0.2932 0.296686 0.299085 0.300158 0.299644 0.297385 0.289964 0.270764 0.286309 0.296054 0.29904
          0.300193 0.299835 0.298422 0.294835 0.290794 0.295337 0.298577 0.299759 0.300253 0.300121 0.299634 0.298573
          0.297912 0.299016 0.299837 0.300147 0.300282 0.300249 0.300134 0.29991 0.29983 0.300044 0.300203 0.300263
          0.300289 0.300283 0.300263 0.300226 0.300219 0.300253 0.300278 0.300287 0.300291 0.30029 0.300287 0.300281
          0.300281 0.300286 0.300289 0.300291 0.30017 0.300094 0.299751 0.298678 0.296825 0.298448 0.299535 0.299975
          0.300134 0.299908 0.29886 0.295365 0.287196 0.294917 0.298489 0.299703 0.300068 0.299557 0.297174 0.288814
          0.264954 0.288154 0.297232 0.299493 0.300053 0.29951 0.297231 0.291197 0.28902 0.295543 0.298879 0.299862
          0.300128 0.299904 0.299059 0.297269 0.297309 0.298929 0.299821 0.300095 0.300171 0.300113 0.299909 0.299531
          0.299606 0.299932 0.300113 0.300169 0.300184 0.300174 0.300136 0.300074 0.300093 0.300147 0.300176 0.300185
          0.300187 0.300185 0.300179 0.30017 0.300174 0.300182 0.300186 0.300187 0.300066 0.299988 0.299653 0.298699
          0.297417 0.29881 0.299692 0.29998 0.300022 0.299763 0.29863 0.295334 0.290306 0.296098 0.298975 0.299815
          0.299916 0.299203 0.296018 0.286191 0.267995 0.290526 0.297837 0.299605 0.29982 0.298651 0.292962 0.271832
          0.286703 0.295533 0.298945 0.299834 0.299964 0.299491 0.297579 0.292988 0.296155 0.298701 0.299735 0.300007
          0.300051 0.299932 0.299494 0.298665 0.299237 0.299782 0.300008 0.300067 0.300078 0.300056 0.299979 0.299853
          0.299942 0.300033 0.300071 0.300081 0.300083 0.30008 0.300067 0.300049 0.300062 0.300076 0.300082 0.300084
        </DataArray>
        <DataArray type="Float32" Name="process rank" NumberOfComponents="1" format="ascii">
          0 0 0 0 0 0 0 0 0 0 0 0
          0 0 0 0 0 0 0 0 0 0 0 0
          0 0 0 0 0 0 0 0 0 0 0 0
          0 0 0 0 0 0 0 0 0 0 0 0
          0 0 0 0 0 0 0 0 0 0 0 0
          0 0 0 0 0 0 0 0 0 0 0 0
          0 0 0 0 0 0 0 0 0 0 0 0
          0 0 0 0 0 0 0 0 0 0 0 0
          0 0 0 0 0 0 0 0 0 0 0 0
          0 0 0 0 0 0 0 0 0 0 0 0
          0 0 0 0 0 0 0 0 0 0 0 0
          0 0 0 0 0 0 0 0 0 0 0 0
          0 0 0 0 0 0 0 0 0 0 0 0
          0 0 0 0 0 0 0 0 0 0 0 0
          0 0 0 0 0 0 0 0 0 0 0 0
          0 0 0 0 0 0 0 0 0 0 0 0
          0 0 0 0 0 0 0 0 0 0 0 0
          0 0 0 0 0 0 0 0 0 0 0 0
          0 0 0 0 0 0 0 0 0 0 0 0
          0 0 0 0 0 0 0 0 0 0 0 0
          0 0 0 0 0 0 0 0 0 0 0 0
          0 0 0 0 0 0 0 0 0 0 0 0
          0 0 0 0 0 0 0 0 0 0 0 0
          0 0 0 0 0 0 0 0 0 0 0 0
          0 0 0 0 0 0 0 0 0 0 0 0
          0 0 0 0 0 0 0 0 0 0 0 0
          0 0 0 0 0 0 0 0 0 0 0 0
          0 0 0 0 0 0 0 0 0 0 0 0
          0 0 0 0 0 0 0 0 0 0 0 0
          0 0 0 0 0 0 0 0 0 0 0 0
          0 0 0 0 0 0 0 0 0 0 0 0
          0 0 0 0 0 0 0 0 0 0 0 0
          0 0 0 0 0 0 0 0 0 0 0 0
          0 0 0 0 0 0 0 0 0 0 0 0
          0 0 0 0 0 0 0 0 0 0 0 0
          0 0 0 0 0 0 0 0 0 0 0 0
          0 0 0 0 0 0 0 0 0 0 0 0
          0 0 0 0 0 0 0 0 0 0 0 0
          0 0 0 0 0 0 0 0 0 0 0 0
          0 0 0 0 0 0 0 0 0 0 0 0
          0 0 0 0 0 0 0 0 0 0 0 0
          0 0 0 0 0 0 0 0 0 0 0 0
          0 0 0 0 0 0 0 0 0 0 0 0
          0 0 0 0 0 0 0 0 0 0 0 0
          0 0 0 0 0 0 0 0 0 0 0 0
          0 0 0 0 0 0 0 0 0 0 0 0
          0 0 0 0 0 0 0 0 0 0 0 0
          0 0 0 0 0 0 0 0 0 0 0 0
          0 0 0 0 0 0 0 0 0 0 0 0
          0 0 0 0 0 0 0 0 0 0 0 0
          0 0 0 0 0 0 0 0 0 0 0 0
          0 0 0 0 0 0 0 0 0 0 0 0
          0 0 0 0 0 0 0 0 0 0 0 0
          0 0 0 0 0 0 0 0 0 0 0 0
          0 0 0 0 0 0 0 0 0 0 0 0
          0 0 0 0 0 0 0 0 0 0 0 0
          0 0 0 0 0 0 0 0 0 0 0 0
          0 0 0 0 0 0 0 0 0 0 0 0
          0 0 0 0 0 0 0 0 0 0 0 0
          0 0 0 0 0 0 0 0 0 0 0 0
          0 0 0 0 0 0 0 0 0 0 0 0
          0 0 0 0 0 0 0 0 0 0 0 0
          0 0 0 0 0 0 0 0 0 0 0 0
          0 0 0 0 0 0 0 0 0 0 0 0
          0 0 0 0 0 0 0 0 0 0 0 0
          0 0 0 0 0 0 0 0 0 0 0 0
          0 0 0 0 0 0 0 0 0 0 0 0
          0 0 0 0 0 0 0 0 0 0 0 0
          0 0 0 0 0 0 0 0 0 0 0 0
          0 0 0 0 0 0 0 0 0 0 0 0
          0 0 0 0 0 0 0 0 0 0 0 0
          0 0 0 0 0 0 0 0 0 0 0 0
          0 0 0 0 0 0 0 0 0 0 0 0
          0 0 0 0 0 0 0 0 0 0 0 0
          0 0 0 0 0 0 0 0 0 0 0 0
          0 0 0 0 0 0 0 0 0 0 0 0
          0 0 0 0 0 0 0 0 0 0 0 0
          0 0 0 0 0 0 0 0 0 0 0 0
          0 0 0 0 0 0 0 0 0 0 0 0
          0 0 0 0 0 0 0 0 0 0 0 0
        </DataArray>
      </CellData>
      <Points>
        <DataArray type="Float32" Name="Coordinates" NumberOfComponents="3" format="ascii">
          -0.04 -0.04 -0.15 -0.03 -0.04 -0.15 -0.04 -0.03 -0.15 -0.03 -0.03 -0.15
          -0.04 -0.04 -0.14 -0.03 -0.04 -0.14 -0.04 -0.03 -0.14 -0.03 -0.03 -0.14
          -0.02 -0.04 -0.15 -0.02 -0.03 -0.15 -0.02 -0.04 -0.14 -0.02 -0.03 -0.14
          -0.01 -0.04 -0.15 -0.01 -0.03 -0.15 -0.01 -0.04 -0.14 -0.01 -0.03 -0.14
          0 -0.04 -0.15 0 -0.03 -0.15 0 -0.04 -0.14 0 -0.03 -0.14
          0.01 -0.04 -0.15 0.01 -0.03 -0.15 0.01 -0.04 -0.14 0.01 -0.03 -0.14
          0.02 -0.04 -0.15 0.02 -0.03 -0.15 0.02 -0.04 -0.14 0.02 -0.03 -0.14
          0.03 -0.04 -0.15 0.03 -0.03 -0.15 0.03 -0.04 -0.14 0.03 -0.03 -0.14
          0.04 -0.04 -0.15 0.04 -0.03 -0.15 0.04 -0.04 -0.14 0.04 -0.03 -0.14
          -0.04 -0.02 -0.15 -0.03 -0.02 -0.15 -0.04 -0.02 -0.14 -0.03 -0.02 -0.14
          -0.02 -0.02 -0.15 -0.02 -0.02 -0.14 -0.01 -0.02 -0.15 -0.01 -0.02 -0.14
          0 -0.02 -0.15 0 -0.02 -0.14 0.01 -0.02 -0.15 0.01 -0.02 -0.14
          0.02 -0.02 -0.15 0.02 -0.02 -0.14 0.03 -0.02 -0.15 0.03 -0.02 -0.14
          0.04 -0.02 -0.15 0.04 -0.02 -0.14 -0.04 -0.01 -0.15 -0.03 -0.01 -0.15
          -0.04 -0.01 -0.14 -0.03 -0.01 -0.14 -0.02 -0.01 -0.15 -0.02 -0.01 -0.14
          -0.01 -0.01 -0.15 -0.01 -0.01 -0.14 0 -0.01 -0.15 0 -0.01 -0.14
          0.01 -0.01 -0.15 0.01 -0.01 -0.14 0.02 -0.01 -0.15 0.02 -0.01 -0.14
          0.03 -0.01 -0.15 0.03 -0.01 -0.14 0.04 -0.01 -0.15 0.04 -0.01 -0.14
          -0.04 0 -0.15 -0.03 0 -0.15 -0.04 0 -0.14 -0.03 0 -0.14
          -0.02 0 -0.15 -0.02 0 -0.14 -0.01 0 -0.15 -0.01 0 -0.14
          0 0 -0.15 0 0 -0.14 0.01 0 -0.15 0.01 0 -0.14
          0.02 0 -0.15 0.02 0 -0.14 0.03 0 -0.15 0.03 0 -0.14
          0.04 0 -0.15 0.04 0 -0.14 -0.04 0.01 -0.15 -0.03 0.01 -0.15
          -0.04 0.01 -0.14 -0.03 0.01 -0.14 -0.02 0.01 -0.15 -0.02 0.01 -0.14
          -0.01 0.01 -0.15 -0.01 0.01 -0.14 0 0.01 -0.15 0 0.01 -0.14
          0.01 0.01 -0.15 0.01 0.01 -0.14 0.02 0.01 -0.15 0.02 0.01 -0.14
          0.03 0.01 -0.15 0.03 0.01 -0.14 0.04 0.01 -0.15 0.04 0.01 -0.14
          -0.04 0.02 -0.15 -0.03 0.02 -0.15 -0.04 0.02 -0.14 -0.03 0.02 -0.14
          -0.02 0.02 -0.15 -0.02 0.02 -0.14 -0.01 0.02 -0.15 -0.01 0.02 -0.14
          0 0.02 -0.15 0 0.02 -0.14 0.01 0.02 -0.15 0.01 0.02 -0.14
          0.02 0.02 -0.15 0.02 0.02 -0.14 0.03 0.02 -0.15 0.03 0.02 -0.14
          0.04 0.02 -0.15 0.04 0.02 -0.14 -0.04 0.03 -0.15 -0.03 0.03 -0.15
          -0.04 0.03 -0.14 -0.03 0.03 -0.14 -0.02 0.03 -0.15 -0.02 0.03 -0.14
          -0.01 0.03 -0.15 -0.01 0.03 -0.14 0 0.03 -0.15 0 0.03 -0.14
          0.01 0.03 -0.15 0.01 0.03 -0.14 0.02 0.03 -0.15 0.02 0.03 -0.14
          0.03 0.03 -0.15 0.03 0.03 -0.14 0.04 0.03 -0.15 0.04 0.03 -0.14
          -0.04 0.04 -0.15 -0.03 0.04 -0.15 -0.04 0.04 -0.14 -0.03 0.04 -0.14
          -0.02 0.04 -0.15 -0.02 0.04 -0.14 -0.01 0.04 -0.15 -0.01 0.04 -0.14
          0 0.04 -0.15 0 0.04 -0.14 0.01 0.04 -0.15 0.01 0.04 -0.14
          0.02 0.04 -0.15 0.02 0.04 -0.14 0.03 0.04 -0.15 0.03 0.04 -0.14
          0.04 0.04 -0.15 0.04 0.04 -0.14 -0.04 -0.04 -0.13 -0.03 -0.04 -0.13
          -0.04 -0.03 -0.13 -0.03 -0.03 -0.13 -0.02 -0.04 -0.13 -0.02 -0.03 -0.13
          -0.01 -0.04 -0.13 -0.01 -0.03 -0.13 0 -0.04 -0.13 0 -0.03 -0.13
          0.01 -0.04 -0.13 0.01 -0.03 -0.13 0.02 -0.04 -0.13 0.02 -0.03 -0.13
          0.03 -0.04 -0.13 0.03 -0.03 -0.13 0.04 -0.04 -0.13 0.04 -0.03 -0.13
          -0.04 -0.02 -0.13 -0.03 -0.02 -0.13 -0.02 -0.02 -0.13 -0.01 -0.02 -0.13
          0 -0.02 -0.13 0.01 -0.02 -0.13 0.02 -0.02 -0.13 0.03 -0.02 -0.13
          0.04 -0.02 -0.13 -0.04 -0.01 -0.13 -0.03 -0.01 -0.13 -0.02 -0.01 -0.13
          -0.01 -0.01 -0.13 0 -0.01 -0.13 0.01 -0.01 -0.13 0.02 -0.01 -0.13
          0.03 -0.01 -0.13 0.04 -0.01 -0.13 -0.04 0 -0.13 -0.03 0 -0.13
          -0.02 0 -0.13 -0.01 0 -0.13 0 0 -0.13 0.01 0 -0.13
          0.02 0 -0.13 0.03 0 -0.13 0.04 0 -0.13 -0.04 0.01 -0.13
          -0.03 0.01 -0.13 -0.02 0.01 -0.13 -0.01 0.01 -0.13 0 0.01 -0.13
          0.01 0.01 -0.13 0.02 0.01 -0.13 0.03 0.01 -0.13 0.04 0.01 -0.13
          -0.04 0.02 -0.13 -0.03 0.02 -0.13 -0.02 0.02 -0.13 -0.01 0.02 -0.13
          0 0.02 -0.13 0.01 0.02 -0.13 0.02 0.02 -0.13 0.03 0.02 -0.13
          0.04 0.02 -0.13 -0.04 0.03 -0.13 -0.03 0.03 -0.13 -0.02 0.03 -0.13
          -0.01 0.03 -0.13 0 0.03 -0.13 0.01 0.03 -0.13 0.02 0.03 -0.13
          0.03 0.03 -0.13 0.04 0.03 -0.13 -0.04 0.04 -0.13 -0.03 0.04 -0.13
          -0.02 0.04 -0.13 -0.01 0.04 -0.13 0 0.04 -0.13 0.01 0.04 -0.13
          0.02 0.04 -0.13 0.03 0.04 -0.13 0.04 0.04 -0.13 -0.04 -0.04 -0.12
          -0.03 -0.04 -0.12 -0.04 -0.03 -0.12 -0.03 -0.03 -0.12 -0.02 -0.04 -0.12
          -0.02 -0.03 -0.12 -0.01 -0.04 -0.12 -0.01 -0.03 -0.12 0 -0.04 -0.12
          0 -0.03 -0.12 0.01 -0.04 -0.12 0.01 -0.03 -0.12 0.02 -0.04 -0.12
          0.02 -0.03 -0.12 0.03 -0.04 -0.12 0.03 -0.03 -0.12 0.04 -0.04 -0.12
          0.04 -0.03 -0.12 -0.04 -0.02 -0.12 -0.03 -0.02 -0.12 -0.02 -0.02 -0.12
          -0.01 -0.02 -0.12 0 -0.02 -0.12 0.01 -0.02 -0.12 0.02 -0.02 -0.12
          0.03 -0.02 -0.12 0.04 -0.02 -0.12 -0.04 -0.01 -0.12 -0.03 -0.01 -0.12
          -0.02 -0.01 -0.12 -0.01 -0.01 -0.12 0 -0.01 -0.12 0.01 -0.01 -0.12
          0.02 -0.01 -0.12 0.03 -0.01 -0.12 0.04 -0.01 -0.12 -0.04 0 -0.12
          -0.03 0 -0.12 -0.02 0 -0.12 -0.01 0 -0.12 0 0 -0.12
          0.01 0 -0.12 0.02 0 -0.12 0.03 0 -0.12 0.04 0 -0.12
          -0.04 0.01 -0.12 -0.03 0.01 -0.12 -0.02 0.01 -0.12 -0.01 0.01 -0.12
          0 0.01 -0.12 0.01 0.01 -0.12 0.02 0.01 -0.12 0.03 0.01 -0.12
          0.04 0.01 -0.12 -0.04 0.02 -0.12 -0.03 0.02 -0.12 -0.02 0.02 -0.12
          -0.01 0.02 -0.12 0 0.02 -0.12 0.01 0.02 -0.12 0.02 0.02 -0.12
          0.03 0.02 -0.12 0.04 0.02 -0.12 -0.04 0.03 -0.12 -0.03 0.03 -0.12
          -0.02 0.03 -0.12 -0.01 0.03 -0.12 0 0.03 -0.12 0.01 0.03 -0.12
          0.02 0.03 -0.12 0.03 0.03 -0.12 0.04 0.03 -0.12 -0.04 0.04 -0.12
          -0.03 0.04 -0.12 -0.02 0.04 -0.12 -0.01 0.04 -0.12 0 0.04 -0.12
          0.01 0.04 -0.12 0.02 0.04 -0.12 0.03 0.04 -0.12 0.04 0.04 -0.12
          -0.04 -0.04 -0.11 -0.03 -0.04 -0.11 -0.04 -0.03 -0.11 -0.03 -0.03 -0.11
          -0.02 -0.04 -0.11 -0.02 -0.03 -0.11 -0.01 -0.04 -0.11 -0.01 -0.03 -0.11
          0 -0.04 -0.11 0 -0.03 -0.11 0.01 -0.04 -0.11 0.01 -0.03 -0.11
          0.02 -0.04 -0.11 0.02 -0.03 -0.11 0.03 -0.04 -0.11 0.03 -0.03 -0.11
          0.04 -0.04 -0.11 0.04 -0.03 -0.11 -0.04 -0.02 -0.11 -0.03 -0.02 -0.11
          -0.02 -0.02 -0.11 -0.01 -0.02 -0.11 0 -0.02 -0.11 0.01 -0.02 -0.11
          0.02 -0.02 -0.11 0.03 -0.02 -0.11 0.04 -0.02 -0.11 -0.04 -0.01 -0.11
          -0.03 -0.01 -0.11 -0.02 -0.01 -0.11 -0.01 -0.01 -0.11 0 -0.01 -0.11
          0.01 -0.01 -0.11 0.02 -0.01 -0.11 0.03 -0.01 -0.11 0.04 -0.01 -0.11
          -0.04 0 -0.11 -0.03 0 -0.11 -0.02 0 -0.11 -0.01 0 -0.11
          0 0 -0.11 0.01 0 -0.11 0.02 0 -0.11 0.03 0 -0.11
          0.04 0 -0.11 -0.04 0.01 -0.11 -0.03 0.01 -0.11 -0.02 0.01 -0.11
          -0.01 0.01 -0.11 0 0.01 -0.11 0.01 0.01 -0.11 0.02 0.01 -0.11
          0.03 0.01 -0.11 0.04 0.01 -0.11 -0.04 0.02 -0.11 -0.03 0.02 -0.11
          -0.02 0.02 -0.11 -0.01 0.02 -0.11 0 0.02 -0.11 0.01 0.02 -0.11
          0.02 0.02 -0.11 0.03 0.02 -0.11 0.04 0.02 -0.11 -0.04 0.03 -0.11
          -0.03 0.03 -0.11 -0.02 0.03 -0.11 -0.01 0.03 -0.11 0 0.03 -0.11
          0.01 0.03 -0.11 0.02 0.03 -0.11 0.03 0.03 -0.11 0.04 0.03 -0.11
          -0.04 0.04 -0.11 -0.03 0.04 -0.11 -0.02 0.04 -0.11 -0.01 0.04 -0.11
          0 0.04 -0.11 0.01 0.04 -0.11 0.02 0.04 -0.11 0.03 0.04 -0.11
          0.04 0.04 -0.11 -0.04 -0.04 -0.1 -0.03 -0.04 -0.1 -0.04 -0.03 -0.1
          -0.03 -0.03 -0.1 -0.02 -0.04 -0.1 -0.02 -0.03 -0.1 -0.01 -0.04 -0.1
          -0.01 -0.03 -0.1 0 -0.04 -0.1 0 -0.03 -0.1 0.01 -0.04 -0.1
          0.01 -0.03 -0.1 0.02 -0.04 -0.1 0.02 -0.03 -0.1 0.03 -0.04 -0.1
          0.03 -0.03 -0.1 0.04 -0.04 -0.1 0.04 -0.03 -0.1 -0.04 -0.02 -0.1
          -0.03 -0.02 -0.1 -0.02 -0.02 -0.1 -0.01 -0.02 -0.1 0 -0.02 -0.1
          0.01 -0.02 -0.1 0.02 -0.02 -0.1 0.03 -0.02 -0.1 0.04 -0.02 -0.1
          -0.04 -0.01 -0.1 -0.03 -0.01 -0.1 -0.02 -0.01 -0.1 -0.01 -0.01 -0.1
          0 -0.01 -0.1 0.01 -0.01 -0.1 0.02 -0.01 -0.1 0.03 -0.01 -0.1
          0.04 -0.01 -0.1 -0.04 0 -0.1 -0.03 0 -0.1 -0.02 0 -0.1
          -0.01 0 -0.1 0 0 -0.1 0.01 0 -0.1 0.02 0 -0.1
          0.03 0 -0.1 0.04 0 -0.1 -0.04 0.01 -0.1 -0.03 0.01 -0.1
          -0.02 0.01 -0.1 -0.01 0.01 -0.1 0 0.01 -0.1 0.01 0.01 -0.1
          0.02 0.01 -0.1 0.03 0.01 -0.1 0.04 0.01 -0.1 -0.04 0.02 -0.1
          -0.03 0.02 -0.1 -0.02 0.02 -0.1 -0.01 0.02 -0.1 0 0.02 -0.1
          0.01 0.02 -0.1 0.02 0.02 -0.1 0.03 0.02 -0.1 0.04 0.02 -0.1
          -0.04 0.03 -0.1 -0.03 0.03 -0.1 -0.02 0.03 -0.1 -0.01 0.03 -0.1
          0 0.03 -0.1 0.01 0.03 -0.1 0.02 0.03 -0.1 0.03 0.03 -0.1
          0.04 0.03 -0.1 -0.04 0.04 -0.1 -0.03 0.04 -0.1 -0.02 0.04 -0.1
          -0.01 0.04 -0.1 0 0.04 -0.1 0.01 0.04 -0.1 0.02 0.04 -0.1