<?xml version="1.0"?>
<VTKFile type="UnstructuredGrid" version="0.1" byte_order="LittleEndian">
  <UnstructuredGrid>
    <Piece NumberOfCells="960" NumberOfPoints="1296">
      <CellData Scalars="p (Pa)">
        <DataArray type="Float32" Name="p (Pa)" NumberOfComponents="1" format="ascii">
          36684.6 36663.9 36608.7 36515.5 36445 36507.6 36597.7 36647.7 36677.2 36642.3 36546.9 36378.9
          36240.2 36355.1 36518.4 36608.5 36669.7 36619.9 36482.1 36230.1 36000.8 36164 36412.8 36553.3
          36672.1 36629.8 36518.2 36327.7 36160.7 36213 36410 36541.6 36677.8 36647.7 36574 36466.4
          36405.6 36431.9 36528.6 36599.6 36685.2 36668.6 36630.8 36583.9 36571.9 36589.2 36626.5 36654.2
          36691 36683.8 36668.4 36651.7 36651.6 36660.6 36673.1 36681.9 36693.8 36690.7 36684.5 36678.6
          36679.8 36684 36688.5 36691.3 36560.7 36492.1 36307.6 35988.5 35733.3 35962.8 36271.2 36438.8
          36535.1 36415.6 36085 35482.1 34936.2 35393.3 35982.1 36297.1 36506.8 36330.5 35831.5 34868.3
          33858.7 34580.9 35553.8 36079.2 36513.2 36361.2 35957.7 35252 34575.6 34659.4 35466.8 35999.4
          36528.8 36412.2 36124.8 35706.3 35512.9 35574.1 35947.6 36227.1 36555.5 36488.7 36335.6 36148
          36130.1 36194 36333.8 36440 36578 36548.7 36485.2 36417.7 36428.5 36465.7 36512.5 36545.7
          36589 36576.5 36551 36526.8 36535.3 36553.4 36570.3 36580.9 36378.7 36154 35546.5 34475.1
          33556.5 34399.1 35432.7 35980.6 36288.9 35883.6 34753.3 32608.7 30407.7 32295.2 34399.3 35477.1
          36182.4 35558.3 33752.3 29983.2 25095.1 28741.2 32670.9 34626.5 36196.2 35650.3 34201.9 31592.4
          28804.4 28338.5 31942.5 34164.9 36234 35775.8 34631.2 32925.9 32461.5 32509.6 33972.7 35076.5
          36331.8 36060.3 35429.8 34648.7 34738.8 34982.2 35499.2 35904.5 36420.4 36299.6 36035 35752.4
          35849.2 36007.4 36181.2 36306.1 36464.1 36413 36306.1 36204.9 36255.7 36334.1 36398.1 36438.1
          36078.2 35477.2 33851.7 30903.2 28123.2 30755.3 33582.5 35026.6 35815.9 34684.4 31489.9 25003.2
          16926.5 24147.7 30543.4 33567.8 35478.2 33624.5 28019.4 14334.5 -11599.6 9546.99 24553.8 30804.5
          35489.1 33851.4 29477.3 21071.7 10643.8 3019.86 20079.1 28649.8 35538 34002.1 29992 23268.2
          23682.4 23091.5 28108 31864.1 35841.3 34909.2 32678.9 29693.2 30841.1 31705 33265.5 34554.4
          36135 35716.4 34778.9 33732.5 34300.3 34892.4 35422.2 35811.2 36282.3 36104.7 35726 35357.1
          35596.9 35888.3 36092.4 36216.8 35619.3 34355.2 30911.7 24366.3 17589.8 24315.7 30473.6 33457.2
          35005.1 32469 25033.1 7777.54 -20522.5 6260.53 23202.4 30126.3 34129.2 29555.8 14045.8 -40995.4
          -272301 -61263.9 4757.62 22746 34074.3 30017.4 18699.1 -6585.11 -45109.3 -138778 -21174.6 14154.8
          34021.5 29689.7 16839.6 -14022.4 1660.13 -1703.91 12920.7 24568.2 34796.4 32168.4 25377.7 13982.8
          21612.7 24873.4 28408.8 31803.5 35584 34408.4 31651.5 28171.3 30725.9 32678.3 33938.1 34907.2
          35982.8 35485.2 34387.2 33237.9 34137.9 35041.1 35565.6 35874.7 35086.7 33076 27566.1 16808.5
          9005.28 17651.4 27057.3 31698.2 33986.6 29628.1 16003 -21028.3 -47677 -15527.4 14400.1 26209
          32235.7 23266 -14043.1 -248405 -312405 -215340 -31324 11159.7 31916 23635.6 -2552.8 -81218.4
          -131374 -112387 -241095 -18874 31551.2 21498.1 -18350.6 -255812 -46476.8 -15040.5 -24651.7 12843.7
          33099.4 27148 8810.01 -44054.4 3009.33 17748 21018.4 28298.6 34730.6 32155.8 25521.6 14778.3
          24179.8 29808.5 32039.6 33875.9 35554.5 34486.7 31988.4 28991.1 31620.5 33854.7 34922.2 35502.4
          34632.9 32321 26472.6 15712.9 5615.93 11778.3 24032.6 30142.7 33215.4 28326.1 14484 -19572.1
          -48360.3 -8724.49 15522 25936.7 30900.3 20654 -17445.6 -221036 -316152 -90138.9 -11299 15461.4
          29993.4 17180.7 -34705.2 -333695 -397915 -314518 -81922.8 1447.24 29771.4 15650.1 -43413.5 -333811
          -114942 -42759.7 -1311.51 19345.6 31726.5 22302.7 -14626.7 -230366 -25491.1 10580.3 23377.1 29678.5
          34047.2 30139.6 18683 -6711.83 16627.9 27444.5 31978.6 34018.6 35213.3 33656.6 29731.6 24152.1
          29211.5 32936.2 34695.3 35422.5 33880.2 30874.4 24002.4 13169.9 -5402.66 -24154.5 11675.7 25184.4
          31812.1 25405 9606.38 -14137.4 -59421.7 -32437.5 7490.54 21770.3 28690 15263.9 -28315.5 -103831
          -315268 -204891 -19463 12214.6 29534.4 18309.4 -16067.6 -123927 -331146 -222824 -21522.6 13974.5
          30385.2 19001.5 -25557.3 -285358 -123324 -23418.8 12669.2 25045 32628.8 26518.7 8681.67 -34237.5
          -4550.49 16785 27247.1 31650.5 34473.4 31891.8 25441.8 15577.4 22931.1 29475.8 33027.9 34551.9
          35346.9 34283.8 31833.8 28942.8 31216 33613.5 34960.4 35518.5 32962.1 28551.6 17894.4 1528.7
          -43234.9 -253060 -25249.6 13861.5 29728.4 18775.6 -14556.4 -50495.7 -100412 -103365 -16228.8 7843.46
          24426.7 -5289.72 -215319 -328352 -323822 -329059 -50812.2 -16088.2 28716.5 15715.1 -26262.2 -104868
          -312490 -70280.5 -4323.46 11481.1 31830.7 25154.1 6845.22 -34174 -37965 1283.2 19645.1 26237.1
          33884.6 30724.7 23052.3 10750.8 13913.6 23801.3 29910.1 32518.3 35066.2 33776.7 30853.8 27169.9
          28759.7 31868.7 33948.7 34871.6 35562.1 35039.8 33903.5 32685.9 33353.6 34490.7 35251.5 35583.7
          33435.6 29959.5 21451.5 3729.59 -53916.9 -329452 -50060.2 3126.29 31237.2 24137.7 6318.27 -24651.7
          -112798 -349251 -71703.6 -25077.5 28252.9 14241.5 -30984.7 -119391 -319879 -151042 -81329.9 -187020
          30798.6 22833.6 1957.83 -39139.3 -77761.7 -26665.5 -6082.3 -10566.2 33256.6 29422.7 20220.2 5047.1
          310.865 13127.3 20946.1 23078.9 34708.9 33081.6 29372 24240.8 23980.8 27909.6 30922 32247.5
          35403.2 34804.1 33484.2 31896.5 32068.4 33341.6 34385.2 34889.3 35657.4 35433.7 34954.8 34439.6
          34563.4 35016.6 35383.6 35561 33710.3 30427.1 21879.5 5441.11 -23134 -91172.2 -22430.3 7468.72
          31757.5 24399.9 2076.36 -45348.3 -109943 -357796 -97946 -17343.3 28861.4 11803.4 -77821.3 -348259
          -325946 -327484 -302941 -62679.2 31240 22088.6 -11685.7 -176211 -72048.1 -52121.1 -29319.9 1924.79
          33666.9 30029.6 19592.8 -4086.46 4645.07 11074.9 18021.7 24632.8 34957 33714.8 30580.1 25577.1
          26399.9 28466 30724.5 32465 35475.6 35104.5 34231.7 33067.6 33124.6 33746.4 34428.2 34889.1
          35636.7 35521.5 35264.2 34958.1 34963.6 35161.6 35372.4 35502.3 34045.3 31332.3 24001.6 8742.94
          -14856.4 -62394.7 -34252.4 5601.23 32664.4 27127 10384.2 -35211.3 -99818 -341157 -257655 -28381.7
          30844.2 20219.4 -22753.3 -281788 -311960 -355795 -78796.1 -8388.29 32266.6 25726.4 4116.28 -75116.8
          -61004.9 -42864.4 -2135.09 16258.4 34025 31246.5 23645.2 8282.69 8339.54 13820.6 22958.8 28357.3
          35029.3 34072.3 31691.1 28005.3 27679.5 29326.4 31770.6 33335.8 35437.8 35161.4 34510.2 33628.9
          33507 33969.2 34608.1 35017.3 35561.8 35481.4 35300.1 35075.3 35040.9 35176 35351.1 35460.3
          34307.7 32193.8 26413.6 14274.7 -5680.15 -10173.1 5963.7 20131.4 33391.7 29566.4 18531.8 -8667.76
          -72680.6 -84246.9 -28670.2 9287.71 32282.9 26089.7 6028.67 -60490 -311382 -299841 -34302.9 10847.1
          32852.3 28294.1 15653 -12921.9 -49946.3 -32136.1 8580.39 23294.8 34063.1 31800.3 26235.4 16899.4
          11047.6 16478.4 25961.1 30687.2 34922 34045.5 32027.2 29204.1 28225.2 29970.2 32527.4 33951.4
          35322.7 35046.6 34436.5 33677.2 33526.4 34046.6 34715.6 35095 35455.2 35369.6 35187.1 34979.5
          34959.6 35117.9 35301.8 35404.6 34235 32080.3 25694.1 9844.2 -23905.6 4518.75 20360.8 27826.5
          33318.6 29409.7 16824.8 -24993.2 -236957 -39999.2 7363.89 23217.4 32077.9 25832.5 5175.6 -66905.9
          -310626 -181211 -9037.05 20450.7 31959.7 25849.8 7367.43 -41948.5 -55176.6 -16417.8 15853.5 27210.3
          33340.9 30133.9 22075.1 8219.28 8930.95 19052.5 27948.9 31987.1 34517.8 33231.2 30316.2 26474.1
          27189.3 30237 32935.2 34251.5 35111.9 34692.7 33796.9 32795.1 33059.3 33944.6 34712.1 35088
          35317.7 35183.8 34909.5 34636 34724.1 34991.3 35216.8 35325.7 34056.6 31869.2 25838 13531.1
          417.843 15537.7 26019.6 30836.4 32912.2 28527.9 15128.6 -20476.3 -61111 -4935.94 19128.1 28196.1
          30977.7 22143 -12145.6 -197602 -307605 -47378.3 10249.1 25860.2 30104.8 19130.2 -25824 -294652
          -70041.2 -2473.07 21035.5 29353.9 32208.8 26943.4 11792.2 -22911.4 3028.54 20357 29039.6 32581.5
          33988.5 31996.7 27208.1 20250.3 25057.2 30035.1 33033.1 34320.6 34870.2 34240.7 32863.8 31309.5
          32327.9 33713.7 34624.4 35020 35172.7 34975.2 34568.7 34177.1 34426.1 34831.3 35110.1 35231.4
        </DataArray>
        <DataArray type="Float32" Name="saturation" NumberOfComponents="1" format="ascii">
          0.301542 0.301519 0.301459 0.301358 0.301282 0.30135 0.301447 0.301502 0.301534 0.301496 0.301392 0.301211
          0.301061 0.301185 0.301361 0.301459 0.301526 0.301472 0.301322 0.30105 0.300804 0.300979 0.301247 0.301399
          0.301528 0.301482 0.301361 0.301155 0.300975 0.301032 0.301244 0.301387 0.301535 0.301502 0.301422 0.301305
          0.301239 0.301268 0.301373 0.30145 0.301543 0.301525 0.301483 0.301433 0.301419 0.301438 0.301479 0.301509
          0.301549 0.301541 0.301524 0.301506 0.301506 0.301516 0.301529 0.301539 0.301552 0.301549 0.301542 0.301535
          0.301537 0.301541 0.301546 0.301549 0.301407 0.301333 0.301133 0.300791 0.300519 0.300763 0.301094 0.301275
          0.30138 0.30125 0.300894 0.300252 0.29968 0.300159 0.300784 0.301122 0.301349 0.301158 0.300623 0.299609
          0.298571 0.299311 0.300328 0.300888 0.301356 0.301191 0.300758 0.30001 0.299305 0.299392 0.300236 0.300802
          0.301373 0.301246 0.300937 0.30049 0.300285 0.30035 0.300747 0.301047 0.301402 0.301329 0.301164 0.300962
          0.300943 0.301011 0.301162 0.301277 0.301426 0.301394 0.301326 0.301252 0.301264 0.301304 0.301355 0.301391
          0.301438 0.301425 0.301397 0.301371 0.30138 0.301399 0.301418 0.301429 0.30121 0.300968 0.300321 0.299202
          0.298265 0.299123 0.3002 0.300782 0.301113 0.300679 0.299489 0.29732 0.295205 0.297012 0.299124 0.300247
          0.300999 0.300333 0.298463 0.29481 0.290512 0.293673 0.297382 0.299358 0.301014 0.300431 0.298921 0.29633
          0.293731 0.293312 0.296669 0.298883 0.301054 0.300564 0.299363 0.297634 0.297175 0.297223 0.298687 0.299826
          0.30116 0.300868 0.300197 0.299381 0.299474 0.299728 0.30027 0.300701 0.301255 0.301125 0.300841 0.300539
          0.300642 0.300811 0.300997 0.301132 0.301303 0.301247 0.301132 0.301023 0.301078 0.301162 0.301231 0.301274
          0.300887 0.300247 0.298564 0.295672 0.29312 0.295532 0.298291 0.299774 0.300607 0.299418 0.296232 0.290436
          0.284246 0.289731 0.295333 0.298277 0.300248 0.298334 0.293028 0.282458 0.268348 0.279373 0.290064 0.295579
          0.30026 0.298564 0.294343 0.287297 0.280057 0.275563 0.286543 0.293591 0.300312 0.298717 0.294818 0.289019
          0.289353 0.288878 0.293106 0.296593 0.300634 0.299651 0.29739 0.294542 0.295613 0.296439 0.297973 0.299283
          0.300948 0.300501 0.299516 0.298443 0.299022 0.299634 0.300189 0.300602 0.301106 0.300915 0.300511 0.300121
          0.300374 0.300684 0.300902 0.301036 0.300398 0.299078 0.29568 0.28991 0.284717 0.289868 0.295267 0.298165
          0.299752 0.297183 0.290461 0.278298 0.264643 0.277402 0.288966 0.294943 0.298847 0.294415 0.282264 0.257594
          0.22602 0.252061 0.276537 0.288603 0.298791 0.294841 0.28552 0.270644 0.256372 0.238221 0.26439 0.282337
          0.298737 0.294538 0.284184 0.267296 0.27482 0.273051 0.281519 0.290076 0.299534 0.296889 0.290749 0.282222
          0.287714 0.290328 0.293375 0.296534 0.30036 0.299133 0.296387 0.293163 0.295505 0.297389 0.298652 0.299649
          0.300785 0.300256 0.299111 0.297945 0.298855 0.299789 0.300341 0.300669 0.299837 0.297784 0.292627 0.284162
          0.27904 0.284762 0.292182 0.296432 0.298701 0.294482 0.283599 0.264446 0.255636 0.266661 0.282502 0.291452
          0.296954 0.289017 0.267287 0.227643 0.223641 0.230207 0.260705 0.280383 0.296643 0.289315 0.272619 0.247603
          0.239216 0.242017 0.228175 0.265294 0.296291 0.287625 0.265504 0.227121 0.255977 0.266865 0.263074 0.281469
          0.297807 0.292261 0.278921 0.25668 0.275557 0.284831 0.287256 0.293276 0.299466 0.296876 0.29087 0.282758
          0.289757 0.294648 0.296763 0.298588 0.300329 0.299214 0.296713 0.2939 0.296357 0.298567 0.299665 0.300274
          0.299365 0.297038 0.291677 0.283398 0.277028 0.280778 0.289637 0.294958 0.297923 0.293301 0.282559 0.265017
          0.255444 0.269644 0.283266 0.29122 0.295669 0.286978 0.26587 0.229735 0.223438 0.245856 0.268481 0.283225
          0.294819 0.284426 0.259577 0.222523 0.219623 0.223526 0.24746 0.274705 0.294614 0.283354 0.256869 0.222517
          0.241617 0.257063 0.273253 0.285996 0.29646 0.288253 0.267039 0.228991 0.262765 0.280017 0.289106 0.294528
          0.298763 0.294955 0.285508 0.270584 0.284035 0.29252 0.296704 0.298734 0.299969 0.298366 0.294577 0.289734
          0.2941 0.297644 0.299429 0.30019 0.298593 0.295645 0.289612 0.281683 0.271211 0.263258 0.280712 0.290587
          0.296542 0.290772 0.27941 0.267247 0.252517 0.260328 0.278126 0.287836 0.293627 0.283089 0.261749 0.243414
          0.223485 0.231108 0.26506 0.281059 0.294395 0.285236 0.266436 0.240269 0.222652 0.22959 0.264255 0.282217
          0.295184 0.285742 0.26274 0.225202 0.240357 0.263533 0.281354 0.290471 0.29734 0.291717 0.278843 0.25973
          0.271626 0.284146 0.292348 0.296386 0.2992 0.29662 0.290802 0.283304 0.28875 0.294342 0.297736 0.299281
          0.30011 0.299005 0.296563 0.293856 0.29597 0.298323 0.299705 0.300291 0.29767 0.293503 0.284936 0.274749
          0.256921 0.227313 0.262853 0.282141 0.294574 0.285576 0.267069 0.254853 0.243998 0.243493 0.266369 0.278337
          0.289959 0.271266 0.230208 0.222795 0.22303 0.222759 0.254766 0.266427 0.293651 0.283399 0.262484 0.24324
          0.223636 0.249944 0.271737 0.280587 0.29656 0.290562 0.277744 0.259751 0.258531 0.274617 0.286218 0.291476
          0.298597 0.295503 0.288846 0.280124 0.282176 0.289449 0.294742 0.297231 0.299815 0.298488 0.295625 0.29228
          0.29369 0.296597 0.298663 0.299612 0.300337 0.299788 0.298617 0.297396 0.298061 0.299218 0.30001 0.30036
          0.298144 0.294788 0.287589 0.275957 0.253932 0.222739 0.254972 0.275622 0.29599 0.289723 0.277435 0.263074
          0.241952 0.22176 0.249626 0.262916 0.293235 0.282396 0.260821 0.240939 0.223238 0.236678 0.247581 0.23277
          0.295573 0.288672 0.274981 0.258164 0.248318 0.262338 0.270884 0.268807 0.297964 0.294293 0.286649 0.276702
          0.274099 0.281655 0.287201 0.288868 0.299443 0.297789 0.294247 0.289807 0.289595 0.29293 0.29569 0.296966
          0.300169 0.299542 0.298192 0.296624 0.296791 0.298049 0.299109 0.299631 0.300438 0.300201 0.299699 0.299165
          0.299293 0.299764 0.300149 0.300336 0.298421 0.295224 0.287921 0.276927 0.263641 0.245662 0.263907 0.278113
          0.29649 0.289937 0.275046 0.256302 0.242407 0.221359 0.24443 0.265911 0.293782 0.280794 0.248306 0.221807
          0.22292 0.22284 0.224168 0.251717 0.295992 0.288085 0.26831 0.233858 0.249549 0.254411 0.261396 0.274963
          0.298377 0.294853 0.286179 0.271854 0.276473 0.280329 0.285028 0.290129 0.299701 0.298425 0.295367 0.290916
          0.291615 0.293426 0.295503 0.297179 0.300246 0.299855 0.298952 0.297775 0.297832 0.298457 0.299153 0.299631
          0.300416 0.300294 0.300023 0.299702 0.299708 0.299915 0.300137 0.300274 0.298761 0.296081 0.289612 0.27888
          0.266942 0.251786 0.259725 0.27702 0.297375 0.292243 0.279894 0.259412 0.244102 0.222152 0.226994 0.261725
          0.295616 0.286649 0.263785 0.225422 0.223665 0.221452 0.248102 0.269799 0.296984 0.291042 0.276174 0.24888
          0.252125 0.257032 0.272831 0.283776 0.29874 0.295999 0.289323 0.278601 0.278636 0.282114 0.288772 0.293329
          0.299777 0.298788 0.296425 0.293015 0.292727 0.294205 0.296502 0.298043 0.300206 0.299915 0.299238 0.298338
          0.298215 0.298683 0.299339 0.299764 0.300337 0.300252 0.300061 0.299825 0.299789 0.29993 0.300114 0.300229
          0.299029 0.296913 0.291627 0.282418 0.271077 0.268984 0.277229 0.286583 0.298099 0.294425 0.285398 0.26967
          0.24941 0.246995 0.261624 0.279213 0.297 0.29135 0.277267 0.252252 0.223697 0.224345 0.259709 0.280185
          0.297561 0.293272 0.283356 0.267769 0.255003 0.26043 0.278782 0.28904 0.298779 0.296531 0.291474 0.284227
          0.280311 0.28393 0.291241 0.295468 0.299665 0.298761 0.296751 0.294093 0.293211 0.294798 0.29724 0.298665
          0.300084 0.299795 0.299162 0.298387 0.298235 0.298762 0.29945 0.299845 0.300224 0.300134 0.299942 0.299725
          0.299704 0.299869 0.300062 0.300171 0.298955 0.296803 0.291015 0.279557 0.263351 0.276401 0.286756 0.292857
          0.298026 0.294281 0.284174 0.262947 0.228485 0.257898 0.278051 0.288978 0.2968 0.291132 0.276775 0.250715
          0.223739 0.233347 0.2695 0.286824 0.296685 0.291146 0.278053 0.257306 0.253601 0.266291 0.283495 0.292316
          0.298048 0.29495 0.288074 0.278563 0.278995 0.285779 0.292965 0.296712 0.299246 0.297939 0.29512 0.291679
          0.292297 0.295046 0.297643 0.298972 0.299863 0.299427 0.298508 0.297504 0.297767 0.298658 0.299447 0.299838
          0.300079 0.299938 0.299652 0.299368 0.299459 0.299737 0.299973 0.300088 0.298772 0.296598 0.291136 0.281922
          0.274156 0.283277 0.291291 0.295609 0.297621 0.293482 0.282997 0.264661 0.252099 0.271437 0.285835 0.293185
          0.295743 0.288127 0.268108 0.231767 0.223906 0.255721 0.279809 0.291155 0.294923 0.285837 0.262643 0.224647
          0.249998 0.27266 0.287269 0.29423 0.296928 0.292084 0.280787 0.263725 0.275568 0.286753 0.293944 0.297294
          0.298703 0.296721 0.292314 0.286672 0.290481 0.294858 0.297741 0.299043 0.299611 0.298961 0.297573 0.296059
          0.297044 0.298424 0.299356 0.299767 0.299927 0.29972 0.299298 0.298896 0.299151 0.29957 0.299861 0.299988
        </DataArray>
        <DataArray type="Float32" Name="process rank" NumberOfComponents="1" format="ascii">
          0 0 0 0 0 0 0 0 0 0 0 0
          0 0 0 0 0 0 0 0 0 0 0 0
          0 0 0 0 0 0 0 0 0 0 0 0
          0 0 0 0 0 0 0 0 0 0 0 0
          0 0 0 0 0 0 0 0 0 0 0 0
          0 0 0 0 0 0 0 0 0 0 0 0
          0 0 0 0 0 0 0 0 0 0 0 0
          0 0 0 0 0 0 0 0 0 0 0 0
          0 0 0 0 0 0 0 0 0 0 0 0
          0 0 0 0 0 0 0 0 0 0 0 0
          0 0 0 0 0 0 0 0 0 0 0 0
          0 0 0 0 0 0 0 0 0 0 0 0
          0 0 0 0 0 0 0 0 0 0 0 0
          0 0 0 0 0 0 0 0 0 0 0 0
          0 0 0 0 0 0 0 0 0 0 0 0
          0 0 0 0 0 0 0 0 0 0 0 0
          0 0 0 0 0 0 0 0 0 0 0 0
          0 0 0 0 0 0 0 0 0 0 0 0
          0 0 0 0 0 0 0 0 0 0 0 0
          0 0 0 0 0 0 0 0 0 0 0 0
          0 0 0 0 0 0 0 0 0 0 0 0
          0 0 0 0 0 0 0 0 0 0 0 0
          0 0 0 0 0 0 0 0 0 0 0 0
          0 0 0 0 0 0 0 0 0 0 0 0
          0 0 0 0 0 0 0 0 0 0 0 0
          0 0 0 0 0 0 0 0 0 0 0 0
          0 0 0 0 0 0 0 0 0 0 0 0
          0 0 0 0 0 0 0 0 0 0 0 0
          0 0 0 0 0 0 0 0 0 0 0 0
          0 0 0 0 0 0 0 0 0 0 0 0
          0 0 0 0 0 0 0 0 0 0 0 0
          0 0 0 0 0 0 0 0 0 0 0 0
          0 0 0 0 0 0 0 0 0 0 0 0
          0 0 0 0 0 0 0 0 0 0 0 0
          0 0 0 0 0 0 0 0 0 0 0 0
          0 0 0 0 0 0 0 0 0 0 0 0
          0 0 0 0 0 0 0 0 0 0 0 0
          0 0 0 0 0 0 0 0 0 0 0 0
          0 0 0 0 0 0 0 0 0 0 0 0
          0 0 0 0 0 0 0 0 0 0 0 0
          0 0 0 0 0 0 0 0 0 0 0 0
          0 0 0 0 0 0 0 0 0 0 0 0
          0 0 0 0 0 0 0 0 0 0 0 0
          0 0 0 0 0 0 0 0 0 0 0 0
          0 0 0 0 0 0 0 0 0 0 0 0
          0 0 0 0 0 0 0 0 0 0 0 0
          0 0 0 0 0 0 0 0 0 0 0 0
          0 0 0 0 0 0 0 0 0 0 0 0
          0 0 0 0 0 0 0 0 0 0 0 0
          0 0 0 0 0 0 0 0 0 0 0 0
          0 0 0 0 0 0 0 0 0 0 0 0
          0 0 0 0 0 0 0 0 0 0 0 0
          0 0 0 0 0 0 0 0 0 0 0 0
          0 0 0 0 0 0 0 0 0 0 0 0
          0 0 0 0 0 0 0 0 0 0 0 0
          0 0 0 0 0 0 0 0 0 0 0 0
          0 0 0 0 0 0 0 0 0 0 0 0
          0 0 0 0 0 0 0 0 0 0 0 0
          0 0 0 0 0 0 0 0 0 0 0 0
          0 0 0 0 0 0 0 0 0 0 0 0
          0 0 0 0 0 0 0 0 0 0 0 0
          0 0 0 0 0 0 0 0 0 0 0 0
          0 0 0 0 0 0 0 0 0 0 0 0
          0 0 0 0 0 0 0 0 0 0 0 0
          0 0 0 0 0 0 0 0 0 0 0 0
          0 0 0 0 0 0 0 0 0 0 0 0
          0 0 0 0 0 0 0 0 0 0 0 0
          0 0 0 0 0 0 0 0 0 0 0 0
          0 0 0 0 0 0 0 0 0 0 0 0
          0 0 0 0 0 0 0 0 0 0 0 0
          0 0 0 0 0 0 0 0 0 0 0 0
          0 0 0 0 0 0 0 0 0 0 0 0
          0 0 0 0 0 0 0 0 0 0 0 0
          0 0 0 0 0 0 0 0 0 0 0 0
          0 0 0 0 0 0 0 0 0 0 0 0
          0 0 0 0 0 0 0 0 0 0 0 0
          0 0 0 0 0 0 0 0 0 0 0 0
          0 0 0 0 0 0 0 0 0 0 0 0
          0 0 0 0 0 0 0 0 0 0 0 0
          0 0 0 0 0 0 0 0 0 0 0 0
        </DataArray>
      </CellData>
      <Points>
        <DataArray type="Float32" Name="Coordinates" NumberOfComponents="3" format="ascii">
          -0.04 -0.04 -0.15 -0.03 -0.04 -0.15 -0.04 -0.03 -0.15 -0.03 -0.03 -0.15
          -0.04 -0.04 -0.14 -0.03 -0.04 -0.14 -0.04 -0.03 -0.14 -0.03 -0.03 -0.14
          -0.02 -0.04 -0.15 -0.02 -0.03 -0.15 -0.02 -0.04 -0.14 -0.02 -0.03 -0.14
          -0.01 -0.04 -0.15 -0.01 -0.03 -0.15 -0.01 -0.04 -0.14 -0.01 -0.03 -0.14
          0 -0.04 -0.15 0 -0.03 -0.15 0 -0.04 -0.14 0 -0.03 -0.14
          0.01 -0.04 -0.15 0.01 -0.03 -0.15 0.01 -0.04 -0.14 0.01 -0.03 -0.14
          0.02 -0.04 -0.15 0.02 -0.03 -0.15 0.02 -0.04 -0.14 0.02 -0.03 -0.14
          0.03 -0.04 -0.15 0.03 -0.03 -0.15 0.03 -0.04 -0.14 0.03 -0.03 -0.14
          0.04 -0.04 -0.15 0.04 -0.03 -0.15 0.04 -0.04 -0.14 0.04 -0.03 -0.14
          -0.04 -0.02 -0.15 -0.03 -0.02 -0.15 -0.04 -0.02 -0.14 -0.03 -0.02 -0.14
          -0.02 -0.02 -0.15 -0.02 -0.02 -0.14 -0.01 -0.02 -0.15 -0.01 -0.02 -0.14
          0 -0.02 -0.15 0 -0.02 -0.14 0.01 -0.02 -0.15 0.01 -0.02 -0.14
          0.02 -0.02 -0.15 0.02 -0.02 -0.14 0.03 -0.02 -0.15 0.03 -0.02 -0.14
          0.04 -0.02 -0.15 0.04 -0.02 -0.14 -0.04 -0.01 -0.15 -0.03 -0.01 -0.15
          -0.04 -0.01 -0.14 -0.03 -0.01 -0.14 -0.02 -0.01 -0.15 -0.02 -0.01 -0.14
          -0.01 -0.01 -0.15 -0.01 -0.01 -0.14 0 -0.01 -0.15 0 -0.01 -0.14
          0.01 -0.01 -0.15 0.01 -0.01 -0.14 0.02 -0.01 -0.15 0.02 -0.01 -0.14
          0.03 -0.01 -0.15 0.03 -0.01 -0.14 0.04 -0.01 -0.15 0.04 -0.01 -0.14
          -0.04 0 -0.15 -0.03 0 -0.15 -0.04 0 -0.14 -0.03 0 -0.14
          -0.02 0 -0.15 -0.02 0 -0.14 -0.01 0 -0.15 -0.01 0 -0.14
          0 0 -0.15 0 0 -0.14 0.01 0 -0.15 0.01 0 -0.14
          0.02 0 -0.15 0.02 0 -0.14 0.03 0 -0.15 0.03 0 -0.14
          0.04 0 -0.15 0.04 0 -0.14 -0.04 0.01 -0.15 -0.03 0.01 -0.15
          -0.04 0.01 -0.14 -0.03 0.01 -0.14 -0.02 0.01 -0.15 -0.02 0.01 -0.14
          -0.01 0.01 -0.15 -0.01 0.01 -0.14 0 0.01 -0.15 0 0.01 -0.14
          0.01 0.01 -0.15 0.01 0.01 -0.14 0.02 0.01 -0.15 0.02 0.01 -0.14
          0.03 0.01 -0.15 0.03 0.01 -0.14 0.04 0.01 -0.15 0.04 0.01 -0.14
          -0.04 0.02 -0.15 -0.03 0.02 -0.15 -0.04 0.02 -0.14 -0.03 0.02 -0.14
          -0.02 0.02 -0.15 -0.02 0.02 -0.14 -0.01 0.02 -0.15 -0.01 0.02 -0.14
          0 0.02 -0.15 0 0.02 -0.14 0.01 0.02 -0.15 0.01 0.02 -0.14
          0.02 0.02 -0.15 0.02 0.02 -0.14 0.03 0.02 -0.15 0.03 0.02 -0.14
          0.04 0.02 -0.15 0.04 0.02 -0.14 -0.04 0.03 -0.15 -0.03 0.03 -0.15
          -0.04 0.03 -0.14 -0.03 0.03 -0.14 -0.02 0.03 -0.15 -0.02 0.03 -0.14
          -0.01 0.03 -0.15 -0.01 0.03 -0.14 0 0.03 -0.15 0 0.03 -0.14
          0.01 0.03 -0.15 0.01 0.03 -0.14 0.02 0.03 -0.15 0.02 0.03 -0.14
          0.03 0.03 -0.15 0.03 0.03 -0.14 0.04 0.03 -0.15 0.04 0.03 -0.14
          -0.04 0.04 -0.15 -0.03 0.04 -0.15 -0.04 0.04 -0.14 -0.03 0.04 -0.14
          -0.02 0.04 -0.15 -0.02 0.04 -0.14 -0.01 0.04 -0.15 -0.01 0.04 -0.14
          0 0.04 -0.15 0 0.04 -0.14 0.01 0.04 -0.15 0.01 0.04 -0.14
          0.02 0.04 -0.15 0.02 0.04 -0.14 0.03 0.04 -0.15 0.03 0.04 -0.14
          0.04 0.04 -0.15 0.04 0.04 -0.14 -0.04 -0.04 -0.13 -0.03 -0.04 -0.13
          -0.04 -0.03 -0.13 -0.03 -0.03 -0.13 -0.02 -0.04 -0.13 -0.02 -0.03 -0.13
          -0.01 -0.04 -0.13 -0.01 -0.03 -0.13 0 -0.04 -0.13 0 -0.03 -0.13
          0.01 -0.04 -0.13 0.01 -0.03 -0.13 0.02 -0.04 -0.13 0.02 -0.03 -0.13
          0.03 -0.04 -0.13 0.03 -0.03 -0.13 0.04 -0.04 -0.13 0.04 -0.03 -0.13
          -0.04 -0.02 -0.13 -0.03 -0.02 -0.13 -0.02 -0.02 -0.13 -0.01 -0.02 -0.13
          0 -0.02 -0.13 0.01 -0.02 -0.13 0.02 -0.02 -0.13 0.03 -0.02 -0.13
          0.04 -0.02 -0.13 -0.04 -0.01 -0.13 -0.03 -0.01 -0.13 -0.02 -0.01 -0.13
          -0.01 -0.01 -0.13 0 -0.01 -0.13 0.01 -0.01 -0.13 0.02 -0.01 -0.13
          0.03 -0.01 -0.13 0.04 -0.01 -0.13 -0.04 0 -0.13 -0.03 0 -0.13
          -0.02 0 -0.13 -0.01 0 -0.13 0 0 -0.13 0.01 0 -0.13
          0.02 0 -0.13 0.03 0 -0.13 0.04 0 -0.13 -0.04 0.01 -0.13
          -0.03 0.01 -0.13 -0.02 0.01 -0.13 -0.01 0.01 -0.13 0 0.01 -0.13
          0.01 0.01 -0.13 0.02 0.01 -0.13 0.03 0.01 -0.13 0.04 0.01 -0.13
          -0.04 0.02 -0.13 -0.03 0.02 -0.13 -0.02 0.02 -0.13 -0.01 0.02 -0.13
          0 0.02 -0.13 0.01 0.02 -0.13 0.02 0.02 -0.13 0.03 0.02 -0.13
          0.04 0.02 -0.13 -0.04 0.03 -0.13 -0.03 0.03 -0.13 -0.02 0.03 -0.13
          -0.01 0.03 -0.13 0 0.03 -0.13 0.01 0.03 -0.13 0.02 0.03 -0.13
          0.03 0.03 -0.13 0.04 0.03 -0.13 -0.04 0.04 -0.13 -0.03 0.04 -0.13
          -0.02 0.04 -0.13 -0.01 0.04 -0.13 0 0.04 -0.13 0.01 0.04 -0.13
          0.02 0.04 -0.13 0.03 0.04 -0.13 0.04 0.04 -0.13 -0.04 -0.04 -0.12
          -0.03 -0.04 -0.12 -0.04 -0.03 -0.12 -0.03 -0.03 -0.12 -0.02 -0.04 -0.12
          -0.02 -0.03 -0.12 -0.01 -0.04 -0.12 -0.01 -0.03 -0.12 0 -0.04 -0.12
          0 -0.03 -0.12 0.01 -0.04 -0.12 0.01 -0.03 -0.12 0.02 -0.04 -0.12
          0.02 -0.03 -0.12 0.03 -0.04 -0.12 0.03 -0.03 -0.12 0.04 -0.04 -0.12
          0.04 -0.03 -0.12 -0.04 -0.02 -0.12 -0.03 -0.02 -0.12 -0.02 -0.02 -0.12
          -0.01 -0.02 -0.12 0 -0.02 -0.12 0.01 -0.02 -0.12 0.02 -0.02 -0.12
          0.03 -0.02 -0.12 0.04 -0.02 -0.12 -0.04 -0.01 -0.12 -0.03 -0.01 -0.12
          -0.02 -0.01 -0.12 -0.01 -0.01 -0.12 0 -0.01 -0.12 0.01 -0.01 -0.12
          0.02 -0.01 -0.12 0.03 -0.01 -0.12 0.04 -0.01 -0.12 -0.04 0 -0.12
          -0.03 0 -0.12 -0.02 0 -0.12 -0.01 0 -0.12 0 0 -0.12
          0.01 0 -0.12 0.02 0 -0.12 0.03 0 -0.12 0.04 0 -0.12
          -0.04 0.01 -0.12 -0.03 0.01 -0.12 -0.02 0.01 -0.12 -0.01 0.01 -0.12
          0 0.01 -0.12 0.01 0.01 -0.12 0.02 0.01 -0.12 0.03 0.01 -0.12
          0.04 0.01 -0.12 -0.04 0.02 -0.12 -0.03 0.02 -0.12 -0.02 0.02 -0.12
          -0.01 0.02 -0.12 0 0.02 -0.12 0.01 0.02 -0.12 0.02 0.02 -0.12
          0.03 0.02 -0.12 0.04 0.02 -0.12 -0.04 0.03 -0.12 -0.03 0.03 -0.12
          -0.02 0.03 -0.12 -0.01 0.03 -0.12 0 0.03 -0.12 0.01 0.03 -0.12
          0.02 0.03 -0.12 0.03 0.03 -0.12 0.04 0.03 -0.12 -0.04 0.04 -0.12
          -0.03 0.04 -0.12 -0.02 0.04 -0.12 -0.01 0.04 -0.12 0 0.04 -0.12
          0.01 0.04 -0.12 0.02 0.04 -0.12 0.03 0.04 -0.12 0.04 0.04 -0.12
          -0.04 -0.04 -0.11 -0.03 -0.04 -0.11 -0.04 -0.03 -0.11 -0.03 -0.03 -0.11
          -0.02 -0.04 -0.11 -0.02 -0.03 -0.11 -0.01 -0.04 -0.11 -0.01 -0.03 -0.11
          0 -0.04 -0.11 0 -0.03 -0.11 0.01 -0.04 -0.11 0.01 -0.03 -0.11
          0.02 -0.04 -0.11 0.02 -0.03 -0.11 0.03 -0.04 -0.11 0.03 -0.03 -0.11
          0.04 -0.04 -0.11 0.04 -0.03 -0.11 -0.04 -0.02 -0.11 -0.03 -0.02 -0.11
          -0.02 -0.02 -0.11 -0.01 -0.02 -0.11 0 -0.02 -0.11 0.01 -0.02 -0.11
          0.02 -0.02 -0.11 0.03 -0.02 -0.11 0.04 -0.02 -0.11 -0.04 -0.01 -0.11
          -0.03 -0.01 -0.11 -0.02 -0.01 -0.11 -0.01 -0.01 -0.11 0 -0.01 -0.11
          0.01 -0.01 -0.11 0.02 -0.01 -0.11 0.03 -0.01 -0.11 0.04 -0.01 -0.11
          -0.04 0 -0.11 -0.03 0 -0.11 -0.02 0 -0.11 -0.01 0 -0.11
          0 0 -0.11 0.01 0 -0.11 0.02 0 -0.11 0.03 0 -0.11
          0.04 0 -0.11 -0.04 0.01 -0.11 -0.03 0.01 -0.11 -0.02 0.01 -0.11
          -0.01 0.01 -0.11 0 0.01 -0.11 0.01 0.01 -0.11 0.02 0.01 -0.11
          0.03 0.01 -0.11 0.04 0.01 -0.11 -0.04 0.02 -0.11 -0.03 0.02 -0.11
          -0.02 0.02 -0.11 -0.01 0.02 -0.11 0 0.02 -0.11 0.01 0.02 -0.11
          0.02 0.02 -0.11 0.03 0.02 -0.11 0.04 0.02 -0.11 -0.04 0.03 -0.11
          -0.03 0.03 -0.11 -0.02 0.03 -0.11 -0.01 0.03 -0.11 0 0.03 -0.11
          0.01 0.03 -0.11 0.02 0.03 -0.11 0.03 0.03 -0.11 0.04 0.03 -0.11
          -0.04 0.04 -0.11 -0.03 0.04 -0.11 -0.02 0.04 -0.11 -0.01 0.04 -0.11
          0 0.04 -0.11 0.01 0.04 -0.11 0.02 0.04 -0.11 0.03 0.04 -0.11
          0.04 0.04 -0.11 -0.04 -0.04 -0.1 -0.03 -0.04 -0.1 -0.04 -0.03 -0.1
          -0.03 -0.03 -0.1 -0.02 -0.04 -0.1 -0.02 -0.03 -0.1 -0.01 -0.04 -0.1
          -0.01 -0.03 -0.1 0 -0.04 -0.1 0 -0.03 -0.1 0.01 -0.04 -0.1
          0.01 -0.03 -0.1 0.02 -0.04 -0.1 0.02 -0.03 -0.1 0.03 -0.04 -0.1
          0.03 -0.03 -0.1 0.04 -0.04 -0.1 0.04 -0.03 -0.1 -0.04 -0.02 -0.1
          -0.03 -0.02 -0.1 -0.02 -0.02 -0.1 -0.01 -0.02 -0.1 0 -0.02 -0.1
          0.01 -0.02 -0.1 0.02 -0.02 -0.1 0.03 -0.02 -0.1 0.04 -0.02 -0.1
          -0.04 -0.01 -0.1 -0.03 -0.01 -0.1 -0.02 -0.01 -0.1 -0.01 -0.01 -0.1
          0 -0.01 -0.1 0.01 -0.01 -0.1 0.02 -0.01 -0.1 0.03 -0.01 -0.1
          0.04 -0.01 -0.1 -0.04 0 -0.1 -0.03 0 -0.1 -0.02 0 -0.1
          -0.01 0 -0.1 0 0 -0.1 0.01 0 -0.1 0.02 0 -0.1
          0.03 0 -0.1 0.04 0 -0.1 -0.04 0.01 -0.1 -0.03 0.01 -0.1
          -0.02 0.01 -0.1 -0.01 0.01 -0.1 0 0.01 -0.1 0.01 0.01 -0.1
          0.02 0.01 -0.1 0.03 0.01 -0.1 0.04 0.01 -0.1 -0.04 0.02 -0.1
          -0.03 0.02 -0.1 -0.02 0.02 -0.1 -0.01 0.02 -0.1 0 0.02 -0.1
          0.01 0.02 -0.1 0.02 0.02 -0.1 0.03 0.02 -0.1 0.04 0.02 -0.1
          -0.04 0.03 -0.1 -0.03 0.03 -0.1 -0.02 0.03 -0.1 -0.01 0.03 -0.1