<?xml version="1.0"?>
<VTKFile type="UnstructuredGrid" version="0.1" byte_order="LittleEndian">
  <UnstructuredGrid>
    <Piece NumberOfCells="960" NumberOfPoints="1296">
      <CellData Scalars="p (Pa)">
        <DataArray type="Float32" Name="p (Pa)" NumberOfComponents="1" format="ascii">
          36688 36679 36659 36631.4 36613.9 36626.5 36651.8 36668.6 36685 36672.1 36642.4 36599.5
          36569.9 36589 36628.6 36654.7 36682.1 36665.3 36626.1 36567 36522.4 36545.4 36600.3 36637.3
          36682.8 36667.6 36633.4 36583.8 36545.8 36554.7 36600.7 36635.3 36685.6 36674.6 36651.3 36620.8
          36601.3 36606.2 36632.4 36653.4 36689.2 36682.6 36669.4 36654.3 36647.7 36651.8 36664 36673.8
          36692.2 36688.8 36682.5 36676.1 36674.7 36677.5 36682.6 36686.5 36693.8 36692 36688.9 36686.1
          36685.9 36687.7 36690.1 36691.8 36577.4 36552.8 36496.2 36414.4 36359.7 36400.4 36476.6 36525.2
          36568.7 36531.5 36442.7 36305.5 36202.8 36271.9 36401.4 36482.7 36559.7 36509.3 36385.6 36183.6
          36011.2 36106.2 36301.7 36425.5 36561 36515.6 36409.2 36246.3 36110 36130.9 36294 36413.8
          36568.3 36534.7 36461.2 36362.5 36302 36313.8 36401 36471 36578.1 36557.4 36515.2 36466.7
          36450.3 36464 36502.8 36533.6 36586.8 36576.3 36556 36536 36534 36543.8 36559.6 36571.3
          36591.6 36586.1 36576.2 36567.5 36568.3 36574.4 36581.6 36586.5 36444.1 36373.2 36205.3 35950.2
          35768.1 35909.4 36149.8 36297.2 36417.6 36304.9 36023.3 35556 35164.4 35446.4 35896.5 36161.8
          36388.3 36228.4 35810.7 35052 34276.4 34763.3 35524.5 35964.7 36390.7 36246.7 35895.3 35322.1
          34795 34823.5 35456.2 35904.8 36409.4 36299 36048.2 35699.3 35515.6 35543.4 35850.8 36098.3
          36438.1 36368.3 36221 36048.7 36018.9 36070.9 36200.1 36303.3 36465.3 36429.8 36359.8 36289.9
          36294.7 36332.3 36383.8 36421.3 36480.4 36462.3 36428.9 36399.8 36406.9 36429.1 36452.2 36467.2
          36272.3 36099.4 35676 34997 34471.1 34903.4 35547.9 35923 36203 35911.9 35145.1 33746.9
          32369.6 33465.3 34826.6 35561.6 36121.3 35682.7 34439.7 31790.6 28109.2 30889.8 33614.4 34980.8
          36122.5 35727.6 34715.3 32923.7 31096.7 30934.1 33190.2 34721.5 36160.9 35839.6 35062.9 33890.9
          33545.4 33611.3 34536.1 35305.8 36233.7 36025.1 35557.4 34975.9 35030.9 35226.6 35590.7 35887.5
          36308.2 36203.1 35986.3 35761.1 35826.1 35958 36101.4 36204 36350.1 36298.1 36198.7 36110.2
          36146.8 36218.8 36282.6 36322.3 36057.7 35719.1 34865 33416.4 32197.9 33278.5 34642.1 35394.1
          35911.6 35305.5 33611.4 30137 25929.1 29713.4 33030.1 34637.9 35725.7 34740 31620.8 23095.8
          3106.58 21138.1 29767.6 33260.1 35713.9 34818 32366.1 27518.9 22263.5 20297.5 27475.8 32308.6
          35768.8 34966.7 32778.1 28658.1 29358.4 29737 31802.3 33852.3 35923.2 35390.9 34068.2 32119.4
          33000.7 33728.2 34519.3 35218.8 36094.3 35833.7 35255.4 34588.5 34947 35354 35676.3 35904
          36190.7 36067 35818.5 35583.7 35721.3 35917.7 36062.6 36148.3 35829.3 35318.6 34023.2 31792.3
          30062.1 31712 33725.5 34839.5 35591.5 34635.3 31880.3 25918.8 20366.8 26415.3 31298.2 33721.1
          35267.3 33592 27813.2 9001.1 -11940.3 12597.6 25291.6 31384.5 35215 33609.9 28852 18213.1
          12638.8 15312.8 13742.1 28687.7 35263 33629.3 28118.2 10655.1 22912.3 26424.2 27482.1 32062.6
          35528.3 34437.5 31236 24492.4 29665.9 32111.2 33244.5 34507.6 35840.4 35333.9 34085 32322.6
          33634 34658.2 35219.9 35604.6 36013.7 35786 35299 34785 35156.2 35574.9 35834.1 35976.8
          35617.2 35001.6 33511.4 31050.9 28892.2 30323.2 32856.1 34281.6 35311 34177.7 31146.4 25200.8
          19056.6 25430.4 30686 33227.2 34892.3 32903 26687.7 9714.12 -14290.1 12683.4 25822 31211.1
          34809.7 32665.5 25763.4 5424.99 -3492.84 -2275.13 20258.5 29702.4 34899.4 32733.5 25063.3 -571.672
          16894.7 22959.5 28784.9 32390.6 35245.9 33726.8 28500.8 12060.9 26294 30930.3 33209 34486.7
          35654.1 34982.8 33155.2 29907.1 32556.1 34198.9 35066.4 35506.4 35874.4 35586.4 34937.6 34162
          34753.6 35343.6 35699 35870.3 35384.1 34638.2 32911.8 30197.5 26898.8 26193.6 30839.3 33206.4
          34987.3 33593.7 30133.8 24628.3 17312.4 22766.2 29340.2 32291.2 34467.3 31969.1 24723.1 11732.4
          -15671 9805.61 25647.7 30692.3 34576 32385.3 26118.6 11919.7 -12596.3 10750.7 25761.5 31056.5
          34843.3 32902 26328.4 4494.71 15549.6 25028.9 30640.7 33159.1 35268.4 34142.4 30952 24650.7
          28260.5 31633.1 33732.4 34739 35633.9 35138.1 33947.8 32304.9 33258.6 34404.8 35162.3 35528.1
          35818.1 35599.5 35139.8 34655.9 34938 35368.2 35670.4 35815.9 35146.4 34195.6 31955.4 28524
          22671.3 11915.4 26259.6 31178.6 34611.2 32624.5 27288.3 21024.7 13774 15424.1 25956.5 29952.4
          33870.9 29580.2 12020.1 -4588.1 -20303.8 -401.446 22698.8 27455.4 34384.2 31992.8 25349 15165.2
          -4794.8 17257 27402.6 30643.5 34945 33590.6 30069.8 23862.5 22398.4 28001.2 31781.9 33376.3
          35384.9 34709.5 33109.1 30819.3 31054.4 32827.7 34217.6 34879.4 35663.9 35376.8 34758 34036.9
          34208.8 34807 35297.3 35540.8 35789.6 35662.9 35412.2 35166.9 35247.4 35478.8 35671.1 35767.8
          35066.1 34145.6 31958.7 28097.1 20682.7 4491.59 23022.6 29238.6 34602.2 32921.9 28801.1 22363.2
          12287.8 -447.801 20666.3 26078.6 34056.3 31171.8 23046.3 10054.5 -14098.2 6622.98 18378.8 17616.5
          34471.1 32542.4 27695.9 20052.2 14186.8 21773.6 26995.4 28354.3 35046.1 34056.4 31749.9 28479.1
          27419.9 29939.8 32098.2 33010.1 35447 35015.8 34074.9 32903.3 32753 33614.2 34432.6 34838.8
          35658.9 35493.3 35153.8 34780.7 34776.7 35066.8 35350.8 35500.3 35743 35674.6 35542.9 35414.4
          35425.8 35536.4 35644.3 35702.2 34999.6 34055.3 31765.5 27978.5 23194.9 17518.3 24653.9 29310.6
          34528.4 32706.4 27854.2 19655.7 11543.3 -2708.66 16512.4 25796.8 33951.4 30613.7 19229.5 -3672.13
          -17023.9 -13995.3 2053.81 21554.1 34387 32182.5 25737.3 11739.2 14356.9 19225.4 24649.8 29064.1
          35015.6 34018.1 31511.7 27606.8 28031.8 29968.1 31892.1 33145.4 35418 35047.2 34208.7 33134.2
          33165 33796.5 34447.8 34840.4 35604.7 35482.8 35227.7 34939.3 34934 35122.7 35326.1 35446.3
          35670.4 35626.7 35541.1 35453.4 35451.1 35514.2 35584 35625.1 35029.3 34237 32266.9 28804.9
          24650.9 21645.9 24971.5 29750.8 34678.7 33246.6 29338.2 21353.7 11453.5 -87.4958 10910.4 26067.7
          34280.1 31903.8 24183.1 1319.55 -16628.3 -347.493 18339.5 27213.7 34560.4 32855.2 27982.3 17446.5
          14841 21905.5 27913 31157.8 35044.6 34235.7 32219.2 29049.5 28578.2 30645.3 32615.2 33735.4
          35374.4 35071.4 34385.2 33488.5 33379.1 33965.2 34584.4 34946.2 35529.4 35432.3 35227.4 34989.3
          34960.4 35119.5 35299.7 35407 35583.3 35550.1 35484.5 35414.7 35406.2 35454.6 35512 35546.6
          35057.3 34435 32873.4 30096.6 26908.7 27299.6 29683.7 32013.2 34814.5 33776.1 30979 25264.1
          16714.9 19543 25594.9 30487.8 34549.9 32989 28364.9 16709.9 -11420.9 7937.14 25231.2 30690.2
          34684.5 33439.9 30134.3 23951.2 18753.5 24557.3 30158.9 32663.5 35027.6 34374.6 32820 30518.2
          29576.5 31376.7 33247.9 34217.3 35297.4 35034 34456.3 33725.9 33551.1 34099 34698.5 35029.4
          35435.8 35347 35164.5 34958.1 34925.5 35082.1 35258.9 35359.6 35486.3 35455.1 35394.6 35332.1
          35325.5 35374.5 35431 35463.9 35006.1 34438.9 32979.9 30242.1 26809.7 29404.9 31932.7 33404.7
          34783 33832.8 31171.4 25032.8 11757.1 23649.3 29869.8 32622.2 34507.4 33039.9 28595.8 16614
          -14283.7 13610.5 28104.4 32304.4 34517.3 33094.5 29009.6 20162.6 17181.7 25561.1 31162.1 33391.4
          34849.6 34063.6 32126.2 29146.2 28979.2 31481.2 33497.8 34433.3 35152.9 34829.2 34114.5 33232
          33269.7 34023.5 34695.2 35030.8 35318 35207.7 34982.9 34742.9 34764.3 34979.9 35183.1 35288.8
          35380 35341.1 35266.9 35195.8 35204.4 35272 35338.1 35373.5 34908.7 34348.6 32941.3 30500.2
          28221.7 30523.2 32773.8 33935.3 34660 33674.4 30979.4 25432.3 18402.5 26346.1 31298.2 33374.8
          34297.6 32582.7 27222.2 12314.3 -13001.3 19106.9 29670.7 32961.2 34169.3 32013.4 23951.8 -12079.2
          13806.7 26047.9 31587.7 33650.3 34584.7 33451.1 30288.2 24047.1 27559.5 31286.1 33518.9 34463
          34979.2 34535 33497.9 32120.9 32748.9 33839.8 34615.6 34970.1 35192.3 35046.3 34742.1 34418.2
          34545 34846.6 35085.1 35199.8 35271.6 35221.5 35125.6 35037.1 35068.6 35160.3 35238.5 35277.6
        </DataArray>
        <DataArray type="Float32" Name="saturation" NumberOfComponents="1" format="ascii">
          0.301546 0.301536 0.301514 0.301484 0.301465 0.301479 0.301506 0.301525 0.301542 0.301528 0.301496 0.301449
          0.301417 0.301438 0.301481 0.301509 0.301539 0.301521 0.301478 0.301414 0.301366 0.301391 0.30145 0.301491
          0.30154 0.301523 0.301486 0.301432 0.301391 0.301401 0.301451 0.301488 0.301543 0.301531 0.301506 0.301473
          0.301451 0.301457 0.301485 0.301508 0.301547 0.30154 0.301525 0.301509 0.301502 0.301506 0.30152 0.30153
          0.30155 0.301547 0.30154 0.301533 0.301531 0.301534 0.30154 0.301544 0.301552 0.30155 0.301547 0.301544
          0.301543 0.301545 0.301548 0.30155 0.301425 0.301399 0.301337 0.301249 0.30119 0.301234 0.301316 0.301369
          0.301416 0.301376 0.301279 0.301131 0.301021 0.301095 0.301235 0.301323 0.301406 0.301352 0.301218 0.301
          0.300815 0.300917 0.301127 0.301261 0.301408 0.301358 0.301243 0.301068 0.300921 0.300943 0.301119 0.301248
          0.301416 0.301379 0.301299 0.301193 0.301127 0.30114 0.301234 0.30131 0.301426 0.301404 0.301358 0.301305
          0.301288 0.301302 0.301344 0.301378 0.301436 0.301424 0.301402 0.30138 0.301378 0.301389 0.301406 0.301419
          0.301441 0.301435 0.301424 0.301415 0.301416 0.301422 0.30143 0.301435 0.301281 0.301204 0.301023 0.30075
          0.300556 0.300706 0.300964 0.301122 0.301252 0.301131 0.300828 0.300331 0.299918 0.300215 0.300693 0.300977
          0.301221 0.301048 0.300601 0.299801 0.298997 0.2995 0.300297 0.300765 0.301223 0.301068 0.300691 0.300084
          0.299533 0.299562 0.300225 0.300701 0.301243 0.301124 0.300855 0.300483 0.300288 0.300317 0.300644 0.300908
          0.301274 0.301199 0.30104 0.300855 0.300823 0.300879 0.301018 0.301129 0.301304 0.301265 0.30119 0.301114
          0.30112 0.30116 0.301216 0.301256 0.30132 0.301301 0.301265 0.301233 0.301241 0.301265 0.30129 0.301306
          0.301095 0.30091 0.300458 0.299743 0.299198 0.299645 0.300322 0.300721 0.301021 0.300709 0.299898 0.298458
          0.297085 0.298173 0.299566 0.300337 0.300933 0.300465 0.299165 0.296522 0.293107 0.295659 0.298324 0.299726
          0.300934 0.300513 0.29945 0.297632 0.295856 0.295701 0.297897 0.299456 0.300976 0.300632 0.299812 0.298604
          0.298254 0.29832 0.299265 0.300067 0.301054 0.30083 0.300332 0.299721 0.299778 0.299983 0.300367 0.300683
          0.301134 0.301021 0.300788 0.300548 0.300617 0.300758 0.300912 0.301022 0.301179 0.301123 0.301016 0.300921
          0.30096 0.301038 0.301107 0.301149 0.300865 0.300504 0.299605 0.298124 0.296917 0.297986 0.299374 0.30016
          0.300709 0.300066 0.298321 0.294953 0.291214 0.29456 0.297738 0.29937 0.300511 0.299476 0.296358 0.288881
          0.275611 0.287348 0.29461 0.297967 0.300498 0.299557 0.297082 0.292586 0.288222 0.286708 0.292548 0.297026
          0.300556 0.299711 0.297488 0.293599 0.294234 0.294582 0.296533 0.298565 0.300721 0.300156 0.298784 0.296841
          0.297709 0.298439 0.299247 0.299975 0.300904 0.300626 0.300014 0.299319 0.299691 0.300117 0.300458 0.300701
          0.301008 0.300875 0.300609 0.30036 0.300506 0.300715 0.30087 0.300962 0.300621 0.30008 0.298738 0.296523
          0.294883 0.296446 0.298436 0.299579 0.300368 0.299367 0.296608 0.291205 0.28676 0.291628 0.296048 0.298431
          0.300026 0.298301 0.292845 0.279038 0.268198 0.281308 0.290677 0.296131 0.299971 0.298319 0.293774 0.285166
          0.281335 0.283123 0.282062 0.293625 0.300022 0.298339 0.293115 0.280064 0.288735 0.291636 0.292553 0.296785
          0.300301 0.299163 0.295989 0.290013 0.294516 0.296833 0.297952 0.299235 0.300633 0.300096 0.298802 0.297039
          0.298343 0.299391 0.299976 0.300382 0.300818 0.300575 0.30006 0.299522 0.29991 0.300351 0.300626 0.300778
          0.300395 0.299748 0.29822 0.295812 0.29381 0.295126 0.297565 0.299003 0.300072 0.298896 0.295903 0.290601
          0.285782 0.290793 0.295467 0.297934 0.299634 0.297611 0.291862 0.279476 0.267182 0.281364 0.291123 0.295965
          0.299548 0.297376 0.291073 0.276918 0.272148 0.27276 0.286678 0.29455 0.299641 0.297444 0.290486 0.273636
          0.284223 0.288772 0.293713 0.297106 0.300004 0.298437 0.293457 0.28096 0.291524 0.295698 0.297916 0.299214
          0.300435 0.299728 0.297863 0.294739 0.297269 0.298918 0.299816 0.300278 0.300669 0.300363 0.299681 0.29888
          0.29949 0.300106 0.300482 0.300665 0.300149 0.29937 0.29762 0.295009 0.292045 0.291439 0.295612 0.297914
          0.299733 0.298303 0.29495 0.290125 0.284519 0.288619 0.294218 0.297008 0.299194 0.296695 0.290204 0.280748
          0.266601 0.279533 0.290976 0.295473 0.299306 0.297101 0.291375 0.280869 0.267911 0.280124 0.291072 0.295818
          0.299583 0.29761 0.291554 0.276387 0.283285 0.290457 0.295424 0.297866 0.300027 0.29886 0.295718 0.290144
          0.293242 0.296369 0.298443 0.299475 0.300413 0.299891 0.298662 0.297022 0.297966 0.299129 0.299916 0.300301
          0.300609 0.300377 0.299892 0.299388 0.299682 0.300132 0.300452 0.300607 0.299899 0.298915 0.296681 0.293478
          0.288543 0.280866 0.291495 0.295934 0.299342 0.297336 0.292384 0.287261 0.282083 0.283199 0.291237 0.294781
          0.298583 0.294437 0.280933 0.271607 0.264729 0.273725 0.288565 0.29253 0.299108 0.296718 0.290725 0.283022
          0.271506 0.28448 0.292484 0.295427 0.299689 0.2983 0.29489 0.289499 0.288328 0.293011 0.296513 0.298084
          0.30015 0.299444 0.297817 0.295593 0.295816 0.297537 0.298937 0.29962 0.300445 0.300141 0.299494 0.298752
          0.298928 0.299545 0.300058 0.300315 0.300579 0.300444 0.300179 0.299921 0.300005 0.300249 0.300453 0.300555
          0.299815 0.298863 0.296684 0.293097 0.287 0.276386 0.288823 0.294125 0.299333 0.29763 0.293728 0.2883
          0.281106 0.273701 0.286987 0.291341 0.298772 0.295927 0.288842 0.279688 0.267264 0.277614 0.285287 0.284737
          0.299198 0.297255 0.292741 0.286523 0.282359 0.287839 0.292129 0.293326 0.299794 0.298772 0.296482 0.293438
          0.292499 0.294769 0.29682 0.297718 0.300215 0.299763 0.298791 0.297612 0.297463 0.298323 0.299158 0.299578
          0.30044 0.300264 0.299907 0.299518 0.299514 0.299816 0.300114 0.300272 0.300529 0.300456 0.300317 0.300181
          0.300193 0.30031 0.300424 0.300486 0.299746 0.298771 0.296497 0.292991 0.28896 0.284666 0.290147 0.29419
          0.299257 0.297417 0.292881 0.286226 0.280627 0.272541 0.283954 0.291102 0.298665 0.295399 0.28591 0.272059
          0.266042 0.267308 0.275034 0.287668 0.299111 0.296902 0.291051 0.280753 0.282473 0.285907 0.290143 0.293966
          0.299762 0.298733 0.296253 0.292663 0.293039 0.294796 0.29662 0.297853 0.300185 0.299796 0.298928 0.297842
          0.297872 0.298508 0.299173 0.29958 0.300382 0.300253 0.299985 0.299683 0.299677 0.299874 0.300088 0.300215
          0.300452 0.300406 0.300315 0.300222 0.30022 0.300286 0.30036 0.300404 0.299777 0.298957 0.296985 0.293731
          0.290144 0.28774 0.29041 0.294595 0.299412 0.297954 0.294216 0.287514 0.28057 0.273889 0.280225 0.291331
          0.299001 0.296631 0.28976 0.274637 0.266204 0.273753 0.285258 0.292319 0.29929 0.297564 0.292995 0.284615
          0.282801 0.287941 0.292933 0.295914 0.299793 0.298956 0.296938 0.293953 0.293527 0.295429 0.297327 0.298446
          0.300139 0.299821 0.299109 0.298197 0.298087 0.298679 0.299314 0.29969 0.300303 0.3002 0.299984 0.299735
          0.299705 0.299871 0.30006 0.300173 0.30036 0.300324 0.300255 0.300181 0.300172 0.300223 0.300284 0.300321
          0.299806 0.29916 0.297582 0.294915 0.292053 0.292394 0.294533 0.296737 0.299553 0.298487 0.295744 0.290654
          0.284096 0.286142 0.290931 0.29528 0.299279 0.297697 0.293335 0.284093 0.268427 0.278393 0.290626 0.295471
          0.299418 0.298148 0.29495 0.289571 0.28556 0.290067 0.294973 0.297374 0.299775 0.299098 0.297529 0.295309
          0.294434 0.296123 0.297955 0.298937 0.300058 0.299782 0.299182 0.298436 0.29826 0.298816 0.299433 0.299777
          0.300204 0.30011 0.299918 0.299702 0.299669 0.299832 0.300017 0.300123 0.300257 0.300224 0.30016 0.300094
          0.300087 0.300139 0.300199 0.300233 0.299753 0.299164 0.297688 0.295051 0.291968 0.294277 0.296659 0.298112
          0.29952 0.298545 0.295927 0.290461 0.280764 0.289326 0.294705 0.297334 0.299235 0.297748 0.293543 0.284025
          0.267185 0.281974 0.293103 0.297021 0.299245 0.297802 0.293916 0.286606 0.284426 0.290903 0.295918 0.298099
          0.299589 0.29878 0.296847 0.294041 0.293889 0.296223 0.298206 0.299159 0.299906 0.299568 0.298832 0.297939
          0.297977 0.298739 0.299429 0.299778 0.300079 0.299964 0.299728 0.299479 0.299501 0.299725 0.299938 0.300049
          0.300145 0.300104 0.300026 0.299951 0.29996 0.300031 0.300101 0.300138 0.299651 0.299071 0.29765 0.295292
          0.293208 0.295314 0.297483 0.298649 0.299393 0.298384 0.295744 0.290794 0.285304 0.291569 0.296048 0.298082
          0.299019 0.297295 0.292326 0.281124 0.267735 0.28582 0.294521 0.297669 0.298888 0.296738 0.289571 0.268137
          0.282105 0.291315 0.296326 0.29836 0.299315 0.298159 0.295094 0.289649 0.292621 0.296037 0.298227 0.299189
          0.299724 0.299263 0.298206 0.296842 0.297459 0.298552 0.299347 0.299715 0.299947 0.299795 0.299478 0.299143
          0.299274 0.299586 0.299835 0.299955 0.300031 0.299978 0.299877 0.299785 0.299818 0.299914 0.299996 0.300037
        </DataArray>
        <DataArray type="Float32" Name="process rank" NumberOfComponents="1" format="ascii">
          0 0 0 0 0 0 0 0 0 0 0 0
          0 0 0 0 0 0 0 0 0 0 0 0
          0 0 0 0 0 0 0 0 0 0 0 0
          0 0 0 0 0 0 0 0 0 0 0 0
          0 0 0 0 0 0 0 0 0 0 0 0
          0 0 0 0 0 0 0 0 0 0 0 0
          0 0 0 0 0 0 0 0 0 0 0 0
          0 0 0 0 0 0 0 0 0 0 0 0
          0 0 0 0 0 0 0 0 0 0 0 0
          0 0 0 0 0 0 0 0 0 0 0 0
          0 0 0 0 0 0 0 0 0 0 0 0
          0 0 0 0 0 0 0 0 0 0 0 0
          0 0 0 0 0 0 0 0 0 0 0 0
          0 0 0 0 0 0 0 0 0 0 0 0
          0 0 0 0 0 0 0 0 0 0 0 0
          0 0 0 0 0 0 0 0 0 0 0 0
          0 0 0 0 0 0 0 0 0 0 0 0
          0 0 0 0 0 0 0 0 0 0 0 0
          0 0 0 0 0 0 0 0 0 0 0 0
          0 0 0 0 0 0 0 0 0 0 0 0
          0 0 0 0 0 0 0 0 0 0 0 0
          0 0 0 0 0 0 0 0 0 0 0 0
          0 0 0 0 0 0 0 0 0 0 0 0
          0 0 0 0 0 0 0 0 0 0 0 0
          0 0 0 0 0 0 0 0 0 0 0 0
          0 0 0 0 0 0 0 0 0 0 0 0
          0 0 0 0 0 0 0 0 0 0 0 0
          0 0 0 0 0 0 0 0 0 0 0 0
          0 0 0 0 0 0 0 0 0 0 0 0
          0 0 0 0 0 0 0 0 0 0 0 0
          0 0 0 0 0 0 0 0 0 0 0 0
          0 0 0 0 0 0 0 0 0 0 0 0
          0 0 0 0 0 0 0 0 0 0 0 0
          0 0 0 0 0 0 0 0 0 0 0 0
          0 0 0 0 0 0 0 0 0 0 0 0
          0 0 0 0 0 0 0 0 0 0 0 0
          0 0 0 0 0 0 0 0 0 0 0 0
          0 0 0 0 0 0 0 0 0 0 0 0
          0 0 0 0 0 0 0 0 0 0 0 0
          0 0 0 0 0 0 0 0 0 0 0 0
          0 0 0 0 0 0 0 0 0 0 0 0
          0 0 0 0 0 0 0 0 0 0 0 0
          0 0 0 0 0 0 0 0 0 0 0 0
          0 0 0 0 0 0 0 0 0 0 0 0
          0 0 0 0 0 0 0 0 0 0 0 0
          0 0 0 0 0 0 0 0 0 0 0 0
          0 0 0 0 0 0 0 0 0 0 0 0
          0 0 0 0 0 0 0 0 0 0 0 0
          0 0 0 0 0 0 0 0 0 0 0 0
          0 0 0 0 0 0 0 0 0 0 0 0
          0 0 0 0 0 0 0 0 0 0 0 0
          0 0 0 0 0 0 0 0 0 0 0 0
          0 0 0 0 0 0 0 0 0 0 0 0
          0 0 0 0 0 0 0 0 0 0 0 0
          0 0 0 0 0 0 0 0 0 0 0 0
          0 0 0 0 0 0 0 0 0 0 0 0
          0 0 0 0 0 0 0 0 0 0 0 0
          0 0 0 0 0 0 0 0 0 0 0 0
          0 0 0 0 0 0 0 0 0 0 0 0
          0 0 0 0 0 0 0 0 0 0 0 0
          0 0 0 0 0 0 0 0 0 0 0 0
          0 0 0 0 0 0 0 0 0 0 0 0
          0 0 0 0 0 0 0 0 0 0 0 0
          0 0 0 0 0 0 0 0 0 0 0 0
          0 0 0 0 0 0 0 0 0 0 0 0
          0 0 0 0 0 0 0 0 0 0 0 0
          0 0 0 0 0 0 0 0 0 0 0 0
          0 0 0 0 0 0 0 0 0 0 0 0
          0 0 0 0 0 0 0 0 0 0 0 0
          0 0 0 0 0 0 0 0 0 0 0 0
          0 0 0 0 0 0 0 0 0 0 0 0
          0 0 0 0 0 0 0 0 0 0 0 0
          0 0 0 0 0 0 0 0 0 0 0 0
          0 0 0 0 0 0 0 0 0 0 0 0
          0 0 0 0 0 0 0 0 0 0 0 0
          0 0 0 0 0 0 0 0 0 0 0 0
          0 0 0 0 0 0 0 0 0 0 0 0
          0 0 0 0 0 0 0 0 0 0 0 0
          0 0 0 0 0 0 0 0 0 0 0 0
          0 0 0 0 0 0 0 0 0 0 0 0
        </DataArray>
      </CellData>
      <Points>
        <DataArray type="Float32" Name="Coordinates" NumberOfComponents="3" format="ascii">
          -0.04 -0.04 -0.15 -0.03 -0.04 -0.15 -0.04 -0.03 -0.15 -0.03 -0.03 -0.15
          -0.04 -0.04 -0.14 -0.03 -0.04 -0.14 -0.04 -0.03 -0.14 -0.03 -0.03 -0.14
          -0.02 -0.04 -0.15 -0.02 -0.03 -0.15 -0.02 -0.04 -0.14 -0.02 -0.03 -0.14
          -0.01 -0.04 -0.15 -0.01 -0.03 -0.15 -0.01 -0.04 -0.14 -0.01 -0.03 -0.14
          0 -0.04 -0.15 0 -0.03 -0.15 0 -0.04 -0.14 0 -0.03 -0.14
          0.01 -0.04 -0.15 0.01 -0.03 -0.15 0.01 -0.04 -0.14 0.01 -0.03 -0.14
          0.02 -0.04 -0.15 0.02 -0.03 -0.15 0.02 -0.04 -0.14 0.02 -0.03 -0.14
          0.03 -0.04 -0.15 0.03 -0.03 -0.15 0.03 -0.04 -0.14 0.03 -0.03 -0.14
          0.04 -0.04 -0.15 0.04 -0.03 -0.15 0.04 -0.04 -0.14 0.04 -0.03 -0.14
          -0.04 -0.02 -0.15 -0.03 -0.02 -0.15 -0.04 -0.02 -0.14 -0.03 -0.02 -0.14
          -0.02 -0.02 -0.15 -0.02 -0.02 -0.14 -0.01 -0.02 -0.15 -0.01 -0.02 -0.14
          0 -0.02 -0.15 0 -0.02 -0.14 0.01 -0.02 -0.15 0.01 -0.02 -0.14
          0.02 -0.02 -0.15 0.02 -0.02 -0.14 0.03 -0.02 -0.15 0.03 -0.02 -0.14
          0.04 -0.02 -0.15 0.04 -0.02 -0.14 -0.04 -0.01 -0.15 -0.03 -0.01 -0.15
          -0.04 -0.01 -0.14 -0.03 -0.01 -0.14 -0.02 -0.01 -0.15 -0.02 -0.01 -0.14
          -0.01 -0.01 -0.15 -0.01 -0.01 -0.14 0 -0.01 -0.15 0 -0.01 -0.14
          0.01 -0.01 -0.15 0.01 -0.01 -0.14 0.02 -0.01 -0.15 0.02 -0.01 -0.14
          0.03 -0.01 -0.15 0.03 -0.01 -0.14 0.04 -0.01 -0.15 0.04 -0.01 -0.14
          -0.04 0 -0.15 -0.03 0 -0.15 -0.04 0 -0.14 -0.03 0 -0.14
          -0.02 0 -0.15 -0.02 0 -0.14 -0.01 0 -0.15 -0.01 0 -0.14
          0 0 -0.15 0 0 -0.14 0.01 0 -0.15 0.01 0 -0.14
          0.02 0 -0.15 0.02 0 -0.14 0.03 0 -0.15 0.03 0 -0.14
          0.04 0 -0.15 0.04 0 -0.14 -0.04 0.01 -0.15 -0.03 0.01 -0.15
          -0.04 0.01 -0.14 -0.03 0.01 -0.14 -0.02 0.01 -0.15 -0.02 0.01 -0.14
          -0.01 0.01 -0.15 -0.01 0.01 -0.14 0 0.01 -0.15 0 0.01 -0.14
          0.01 0.01 -0.15 0.01 0.01 -0.14 0.02 0.01 -0.15 0.02 0.01 -0.14
          0.03 0.01 -0.15 0.03 0.01 -0.14 0.04 0.01 -0.15 0.04 0.01 -0.14
          -0.04 0.02 -0.15 -0.03 0.02 -0.15 -0.04 0.02 -0.14 -0.03 0.02 -0.14
          -0.02 0.02 -0.15 -0.02 0.02 -0.14 -0.01 0.02 -0.15 -0.01 0.02 -0.14
          0 0.02 -0.15 0 0.02 -0.14 0.01 0.02 -0.15 0.01 0.02 -0.14
          0.02 0.02 -0.15 0.02 0.02 -0.14 0.03 0.02 -0.15 0.03 0.02 -0.14
          0.04 0.02 -0.15 0.04 0.02 -0.14 -0.04 0.03 -0.15 -0.03 0.03 -0.15
          -0.04 0.03 -0.14 -0.03 0.03 -0.14 -0.02 0.03 -0.15 -0.02 0.03 -0.14
          -0.01 0.03 -0.15 -0.01 0.03 -0.14 0 0.03 -0.15 0 0.03 -0.14
          0.01 0.03 -0.15 0.01 0.03 -0.14 0.02 0.03 -0.15 0.02 0.03 -0.14
          0.03 0.03 -0.15 0.03 0.03 -0.14 0.04 0.03 -0.15 0.04 0.03 -0.14
          -0.04 0.04 -0.15 -0.03 0.04 -0.15 -0.04 0.04 -0.14 -0.03 0.04 -0.14
          -0.02 0.04 -0.15 -0.02 0.04 -0.14 -0.01 0.04 -0.15 -0.01 0.04 -0.14
          0 0.04 -0.15 0 0.04 -0.14 0.01 0.04 -0.15 0.01 0.04 -0.14
          0.02 0.04 -0.15 0.02 0.04 -0.14 0.03 0.04 -0.15 0.03 0.04 -0.14
          0.04 0.04 -0.15 0.04 0.04 -0.14 -0.04 -0.04 -0.13 -0.03 -0.04 -0.13
          -0.04 -0.03 -0.13 -0.03 -0.03 -0.13 -0.02 -0.04 -0.13 -0.02 -0.03 -0.13
          -0.01 -0.04 -0.13 -0.01 -0.03 -0.13 0 -0.04 -0.13 0 -0.03 -0.13
          0.01 -0.04 -0.13 0.01 -0.03 -0.13 0.02 -0.04 -0.13 0.02 -0.03 -0.13
          0.03 -0.04 -0.13 0.03 -0.03 -0.13 0.04 -0.04 -0.13 0.04 -0.03 -0.13
          -0.04 -0.02 -0.13 -0.03 -0.02 -0.13 -0.02 -0.02 -0.13 -0.01 -0.02 -0.13
          0 -0.02 -0.13 0.01 -0.02 -0.13 0.02 -0.02 -0.13 0.03 -0.02 -0.13
          0.04 -0.02 -0.13 -0.04 -0.01 -0.13 -0.03 -0.01 -0.13 -0.02 -0.01 -0.13
          -0.01 -0.01 -0.13 0 -0.01 -0.13 0.01 -0.01 -0.13 0.02 -0.01 -0.13
          0.03 -0.01 -0.13 0.04 -0.01 -0.13 -0.04 0 -0.13 -0.03 0 -0.13
          -0.02 0 -0.13 -0.01 0 -0.13 0 0 -0.13 0.01 0 -0.13
          0.02 0 -0.13 0.03 0 -0.13 0.04 0 -0.13 -0.04 0.01 -0.13
          -0.03 0.01 -0.13 -0.02 0.01 -0.13 -0.01 0.01 -0.13 0 0.01 -0.13
          0.01 0.01 -0.13 0.02 0.01 -0.13 0.03 0.01 -0.13 0.04 0.01 -0.13
          -0.04 0.02 -0.13 -0.03 0.02 -0.13 -0.02 0.02 -0.13 -0.01 0.02 -0.13
          0 0.02 -0.13 0.01 0.02 -0.13 0.02 0.02 -0.13 0.03 0.02 -0.13
          0.04 0.02 -0.13 -0.04 0.03 -0.13 -0.03 0.03 -0.13 -0.02 0.03 -0.13
          -0.01 0.03 -0.13 0 0.03 -0.13 0.01 0.03 -0.13 0.02 0.03 -0.13
          0.03 0.03 -0.13 0.04 0.03 -0.13 -0.04 0.04 -0.13 -0.03 0.04 -0.13
          -0.02 0.04 -0.13 -0.01 0.04 -0.13 0 0.04 -0.13 0.01 0.04 -0.13
          0.02 0.04 -0.13 0.03 0.04 -0.13 0.04 0.04 -0.13 -0.04 -0.04 -0.12
          -0.03 -0.04 -0.12 -0.04 -0.03 -0.12 -0.03 -0.03 -0.12 -0.02 -0.04 -0.12
          -0.02 -0.03 -0.12 -0.01 -0.04 -0.12 -0.01 -0.03 -0.12 0 -0.04 -0.12
          0 -0.03 -0.12 0.01 -0.04 -0.12 0.01 -0.03 -0.12 0.02 -0.04 -0.12
          0.02 -0.03 -0.12 0.03 -0.04 -0.12 0.03 -0.03 -0.12 0.04 -0.04 -0.12
          0.04 -0.03 -0.12 -0.04 -0.02 -0.12 -0.03 -0.02 -0.12 -0.02 -0.02 -0.12
          -0.01 -0.02 -0.12 0 -0.02 -0.12 0.01 -0.02 -0.12 0.02 -0.02 -0.12
          0.03 -0.02 -0.12 0.04 -0.02 -0.12 -0.04 -0.01 -0.12 -0.03 -0.01 -0.12
          -0.02 -0.01 -0.12 -0.01 -0.01 -0.12 0 -0.01 -0.12 0.01 -0.01 -0.12
          0.02 -0.01 -0.12 0.03 -0.01 -0.12 0.04 -0.01 -0.12 -0.04 0 -0.12
          -0.03 0 -0.12 -0.02 0 -0.12 -0.01 0 -0.12 0 0 -0.12
          0.01 0 -0.12 0.02 0 -0.12 0.03 0 -0.12 0.04 0 -0.12
          -0.04 0.01 -0.12 -0.03 0.01 -0.12 -0.02 0.01 -0.12 -0.01 0.01 -0.12
          0 0.01 -0.12 0.01 0.01 -0.12 0.02 0.01 -0.12 0.03 0.01 -0.12
          0.04 0.01 -0.12 -0.04 0.02 -0.12 -0.03 0.02 -0.12 -0.02 0.02 -0.12
          -0.01 0.02 -0.12 0 0.02 -0.12 0.01 0.02 -0.12 0.02 0.02 -0.12
          0.03 0.02 -0.12 0.04 0.02 -0.12 -0.04 0.03 -0.12 -0.03 0.03 -0.12
          -0.02 0.03 -0.12 -0.01 0.03 -0.12 0 0.03 -0.12 0.01 0.03 -0.12
          0.02 0.03 -0.12 0.03 0.03 -0.12 0.04 0.03 -0.12 -0.04 0.04 -0.12
          -0.03 0.04 -0.12 -0.02 0.04 -0.12 -0.01 0.04 -0.12 0 0.04 -0.12
          0.01 0.04 -0.12 0.02 0.04 -0.12 0.03 0.04 -0.12 0.04 0.04 -0.12
          -0.04 -0.04 -0.11 -0.03 -0.04 -0.11 -0.04 -0.03 -0.11 -0.03 -0.03 -0.11
          -0.02 -0.04 -0.11 -0.02 -0.03 -0.11 -0.01 -0.04 -0.11 -0.01 -0.03 -0.11
          0 -0.04 -0.11 0 -0.03 -0.11 0.01 -0.04 -0.11 0.01 -0.03 -0.11
          0.02 -0.04 -0.11 0.02 -0.03 -0.11 0.03 -0.04 -0.11 0.03 -0.03 -0.11
          0.04 -0.04 -0.11 0.04 -0.03 -0.11 -0.04 -0.02 -0.11 -0.03 -0.02 -0.11
          -0.02 -0.02 -0.11 -0.01 -0.02 -0.11 0 -0.02 -0.11 0.01 -0.02 -0.11
          0.02 -0.02 -0.11 0.03 -0.02 -0.11 0.04 -0.02 -0.11 -0.04 -0.01 -0.11
          -0.03 -0.01 -0.11 -0.02 -0.01 -0.11 -0.01 -0.01 -0.11 0 -0.01 -0.11
          0.01 -0.01 -0.11 0.02 -0.01 -0.11 0.03 -0.01 -0.11 0.04 -0.01 -0.11
          -0.04 0 -0.11 -0.03 0 -0.11 -0.02 0 -0.11 -0.01 0 -0.11
          0 0 -0.11 0.01 0 -0.11 0.02 0 -0.11 0.03 0 -0.11
          0.04 0 -0.11 -0.04 0.01 -0.11 -0.03 0.01 -0.11 -0.02 0.01 -0.11
          -0.01 0.01 -0.11 0 0.01 -0.11 0.01 0.01 -0.11 0.02 0.01 -0.11
          0.03 0.01 -0.11 0.04 0.01 -0.11 -0.04 0.02 -0.11 -0.03 0.02 -0.11
          -0.02 0.02 -0.11 -0.01 0.02 -0.11 0 0.02 -0.11 0.01 0.02 -0.11
          0.02 0.02 -0.11 0.03 0.02 -0.11 0.04 0.02 -0.11 -0.04 0.03 -0.11
          -0.03 0.03 -0.11 -0.02 0.03 -0.11 -0.01 0.03 -0.11 0 0.03 -0.11
          0.01 0.03 -0.11 0.02 0.03 -0.11 0.03 0.03 -0.11 0.04 0.03 -0.11
          -0.04 0.04 -0.11 -0.03 0.04 -0.11 -0.02 0.04 -0.11 -0.01 0.04 -0.11
          0 0.04 -0.11 0.01 0.04 -0.11 0.02 0.04 -0.11 0.03 0.04 -0.11
          0.04 0.04 -0.11 -0.04 -0.04 -0.1 -0.03 -0.04 -0.1 -0.04 -0.03 -0.1
          -0.03 -0.03 -0.1 -0.02 -0.04 -0.1 -0.02 -0.03 -0.1 -0.01 -0.04 -0.1
          -0.01 -0.03 -0.1 0 -0.04 -0.1 0 -0.03 -0.1 0.01 -0.04 -0.1
          0.01 -0.03 -0.1 0.02 -0.04 -0.1 0.02 -0.03 -0.1 0.03 -0.04 -0.1
          0.03 -0.03 -0.1 0.04 -0.04 -0.1 0.04 -0.03 -0.1 -0.04 -0.02 -0.1
          -0.03 -0.02 -0.1 -0.02 -0.02 -0.1 -0.01 -0.02 -0.1 0 -0.02 -0.1
          0.01 -0.02 -0.1 0.02 -0.02 -0.1 0.03 -0.02 -0.1 0.04 -0.02 -0.1
          -0.04 -0.01 -0.1 -0.03 -0.01 -0.1 -0.02 -0.01 -0.1 -0.01 -0.01 -0.1
          0 -0.01 -0.1 0.01 -0.01 -0.1 0.02 -0.01 -0.1 0.03 -0.01 -0.1
          0.04 -0.01 -0.1 -0.04 0 -0.1 -0.03 0 -0.1 -0.02 0 -0.1
          -0.01 0 -0.1 0 0 -0.1 0.01 0 -0.1 0.02 0 -0.1
          0.03 0 -0.1 0.04 0 -0.1 -0.04 0.01 -0.1 -0.03 0.01 -0.1
          -0.02 0.01 -0.1 -0.01 0.01 -0.1 0 0.01 -0.1 0.01 0.01 -0.1
          0.02 0.01 -0.1 0.03 0.01 -0.1 0.04 0.01 -0.1 -0.04 0.02 -0.1
          -0.03 0.02 -0.1 -0.02 0.02 -0.1 -0.01 0.02 -0.1 0 0.02 -0.1
          0.01 0.02 -0.1 0.02 0.02 -0.1 0.03 0.02 -0.1 0.04 0.02 -0.1
          -0.04 0.03 -0.1 -0.03 0.03 -0.1 -0.02 0.03 -0.1 -0.01 0.03 -0.1
          0 0.03 -0.1 0.01 0.03 -0.1 0.02 0.03 -0.1 0.03 0.03 -0.1
          0.04 0.03 -0.1 -0.04 0.04 -0.1 -0.03 0.04 -0.1 -0.02 0.04 -0.1