<?xml version="1.0"?>
<VTKFile type="UnstructuredGrid" version="0.1" byte_order="LittleEndian">
  <UnstructuredGrid>
    <Piece NumberOfCells="960" NumberOfPoints="1296">
      <CellData Scalars="p (Pa)">
        <DataArray type="Float32" Name="p (Pa)" NumberOfComponents="1" format="ascii">
          26032.3 25877.6 25610.8 25304.1 25035.2 24854.6 24763 24730.4 26140.8 25987.8 25723.7 25420.2
          25155.8 24981.6 24895.8 24866.5 26353.4 26206.1 25951.7 25659.8 25406.9 25243.3 25165.1 25139.6
          26652.5 26516.8 26282.8 26015.1 25783.1 25631.5 25557.9 25533.4 26999.4 26879.5 26673.4 26437.8
          26232.4 26094 26022.9 25997.1 27338 27234.6 27057.1 26853.8 26674.1 26548.4 26479.2 26451.7
          27607.4 27517.4 27362.7 27184.7 27024.8 26908.9 26841.4 26812.6 27756.8 27674.2 27532 27367.6
          27218.4 27107.9 27041.3 27011.9 25329.5 25140.8 24815.1 24443.5 24128.1 23935.7 23855.4 23835.6
          25444.6 25256.2 24930.3 24557.7 24244 24061.6 23992.3 23979 25674.3 25491.2 25173.9 24810.6
          24506.8 24339.7 24282.9 24276.1 26004.1 25835.6 25544.9 25214.5 24939.7 24783.2 24727.7 24720
          26392 26245 25992.8 25708.2 25470.9 25327.4 25268.2 25254.4 26774.1 26649.8 26437.4 26198.1
          25995.6 25865 25802.6 25782.5 27079.8 26973.8 26793 26588.4 26411.4 26290.8 26226.8 26202.3
          27249.5 27153.7 26990.1 26804.1 26640.5 26525.3 26460.6 26434.1 24045.3 23784.6 23333.6 22821.1
          22404.7 22193.6 22144.8 22156.5 24172.2 23907.8 23447 22918.4 22491.5 22304.3 22283.2 22310.9
          24434.7 24173.5 23714.9 23182.2 22750.1 22598.6 22608.7 22652.6 24825.6 24585.7 24168.3 23693.2
          23318.3 23162.3 23160.6 23198.2 25296.6 25090.6 24736.5 24342.1 24036.9 23889.4 23864.1 23881.3
          25767.2 25598 25310.1 24993 24744.4 24608.4 24565.2 24563.7 26146.4 26007 25771.1 25511.3
          25300.8 25173.4 25119.3 25105.6 26357.8 26234.7 26026.8 25796.7 25605.3 25482.5 25423.4 25403.8
          22226.1 21850.8 21196 20447.7 19858.9 19631.8 19649.6 19720.4 22368.7 21980.4 21292.2 20483.8
          19838.2 19683.5 19774.8 19884.6 22678 22285.6 21576.9 20707.2 19954.4 19942.9 20130.6 20285.3
          23160.8 22800.6 22161.3 21415.5 20842.7 20717.3 20847.7 20986.8 23758 23452.8 22921.2 22327.5
          21915.7 21780.3 21830.5 21912.3 24364.1 24120.7 23705.1 23254.8 22941 22809.1 22807.2 22842.2
          24856.2 24663.3 24338.5 23989.7 23732.2 23601.9 23569.3 23575.5 25131.4 24966 24689 24390.8
          24160.1 24030.5 23983.5 23976.6 19956.6 19424.1 18485 17396.9 16549.8 16315.5 16439.7 16599.6
          20118.6 19557 18540 17295.1 16252.9 16236.1 16531.3 16774 20488.6 19907.2 18813.4 17309.9
          15497.7 16293.5 16888.7 17246.3 21093.9 20559 19580.6 18381.2 17444.9 17382.8 17802.8 18154.8
          21859.8 21408.1 20596.7 19649.4 19133 19051.1 19234 19433.6 22647.6 22296.8 21686.7 21019.6
          20647.4 20547.4 20617.3 20712.1 23290.8 23023.8 22572.2 22094.8 21786.3 21664.8 21668.8 21705.9
          23650.9 23428.9 23058.6 22668.6 22391.3 22259.1 22232.4 22244.2 17367 16646.9 15368.3 13874.3
          12719.3 12440.3 12672.9 12934.8 17557.1 16789.9 15384.8 13636.4 12213.3 12260.7 12750.7 13143
          18007.3 17201 15647.8 13378.4 10986.5 12204.5 13129.1 13730 18766.4 18018.9 16612.7 14809
          13589.2 13684.3 14077.4 14887.7 19738.7 19102.8 17894.8 16191.4 15889.1 15943.3 16247.9 16630.8
          20745.8 20262 19386.6 18343.4 18022.9 18003.1 18165.3 18337.6 21569.1 21214.5 20605.7 19956
          19612.2 19514.7 19565.4 19639.4 22029.1 21742.8 21263.8 20764.5 20438.9 20307.1 20304.5 20337.2
          14622.4 13702.5 12065.6 10147 8646.08 8240.67 8554.58 8914.84 14856.3 13878.3 12092.9 9906.07
          8149.76 8085.55 8707.3 9220.94 15416.8 14392.9 12445 9804.83 7274.56 8176.44 9319.91 10053.6
          16366.6 15416.3 13607.2 11177.1 9606.16 9512.91 10825.6 11633 17579.4 16779 15240.1 13068.1
          12662.7 12785.1 13368.3 13823.2 18825.1 18221.1 17090.2 15520.5 15395.3 15453.2 15718.3 15944.4
          19836.1 19403.3 18649.8 17819.6 17447 17362.2 17450.6 17551.8 20397.9 20054.4 19476.7 18871.6
          18493 18350.6 18362 18409.2 11893.3 10773.9 8775.17 6416.81 4511.47 3882.98 4269.55 4732.51
          12189.4 11006 8849.08 6244.89 4116.57 3878.06 4586.68 5201.29 12893.2 11667.9 9351.17 6418.18
          3579.97 4350.77 5594.58 6397.16 14076 12974.5 10906.4 8266.25 6049.83 6627.82 7776 8516.99
          15555.1 14658.3 12967.5 10651.4 9921.62 10116.9 10728 11185.6 17039.5 16380.6 15198 13826.5
          13234.7 13206.1 13471.8 13705.9 18221.9 17748.4 16935.8 16063.7 15556.1 15413.4 15491.2 15594.8
          18873.1 18494.8 17859.6 17190.3 16737.5 16552.6 16550.8 16597 9331.65 8027.84 5685.26 2890.65
          532.185 -498.629 26.8211 612.762 9705.94 8334.89 5815.42 2823.91 361.692 -207.479 560.246 1270.31
          10575.4 9159.68 6330.87 3172.72 513.003 777.398 2043.28 2877.97 12014 10814.3 8587.83 5909.82
          3620.99 3978.54 4933.9 5616.84 13759.6 12832.4 11162.1 9206.86 7947.9 7900.93 8395.24 8809.65
          15460.5 14789.6 13620.1 12325.9 11500.1 11319.2 11511.2 11717.9 16789.2 16302.6 15475.3 14585.1
          13971.9 13743.2 13774.5 13860.2 17514.2 17120.7 16459.8 15752.5 15233.4 14991.1 14955.5 14988
          7040.41 5592 2976.1 -200.525 -2973.57 -4300.17 -3786.84 -3113.45 7508.55 6019.02 3293.68 -36.3333
          -2908.72 -3907.04 -3110.23 -2311.11 8560.01 7093.65 4354.45 1000.71 -1957.86 -2153.55 -1166.6 -378.331
          10222.4 8988.89 6744.34 4060.03 1947.06 1714.49 2416.8 3040.81 12196.3 11261.5 9608.9 7717.5
          6342.42 6043.46 6390.59 6755.41 14082.7 13411 12252.9 10972.5 10047.9 9737.82 9846.85 10020.2
          15536.6 15046.7 14215.8 13311.1 12635.3 12335 12317.7 12381.9 16324.3 15925.1 15252.8 14522.6
          13958.2 13667.5 13598.2 13615 5034.14 3467.93 630.313 -2835.62 -5850.5 -7225.6 -6799.93 -6065.16
          5581.79 3987.93 1059.63 -2562.82 -5689.57 -6853.19 -6096.39 -5138.87 6784.38 5243.3 2341.92 -1270.27
          -4272.31 -4905.58 -3973.09 -2833.63 8637.38 7357.11 5022.28 2170.99 89.3261 -353.978 292.59 990.906
          10808.3 9852.29 8168.02 6237.72 4819.17 4418.2 4718.97 5088.31 12860.9 12180.1 11010 9713.29
          8748.39 8383.67 8461.41 8627.09 14430.5 13935.1 13095.4 12176.7 11472.4 11140.2 11102.7 11159.5
          15277.3 14873.1 14192 13447.7 12861.3 12548.2 12464.1 12474.7 3299.85 1638.45 -1365.52 -5012.71
          -8094.15 -9333.25 -8830.53 -8024.82 3899.59 2215.13 -874.407 -4702.18 -7904.89 -8891.36 -8040.34 -6978.37
          5208.8 3594.81 588.996 -3245.22 -6172.8 -6640.97 -5479.41 -4390.79 7209.21 5868.93 3439.29 511.752
          -1613.09 -1933.42 -1157.23 -418.021 9550.02 8554.11 6808.88 4830.41 3408.61 3069.25 3439.97 3846.07
          11759.1 11055.4 9852.04 8531.5 7568.5 7233.92 7348.28 7536.35 13444.1 12935.7 12077.8 11146.5
          10443.2 10126.2 10108.4 10178 14351.4 13938.5 13245.2 12492.5 11906.2 11602.2 11530.7 11549.9
          1841.18 99.9694 -3024.72 -6747.12 -9725.82 -10631.5 -9925.39 -9070.06 2459.38 688.68 -2530.5 -6433.96
          -9524.7 -10094.9 -9000.79 -7939.78 3822.52 2118.58 -1010.2 -4849.8 -7722.94 -7846.07 -6431.31 -5304.65
          5925.68 4494.08 1923.11 -1073.69 -3121.11 -3166.13 -2166.32 -1343.61 8416.28 7352.54 5502.94 3460.93
          2110.35 1948.9 2473.77 2953.7 10778.9 10034.7 8772.26 7419.81 6500.86 6265.86 6472.55 6710.16
          12582 12051.5 11163.3 10218.6 9541.06 9278.71 9314.59 9415.07 13552.3 13125.7 12414.7 11655.9
          11087 10818.5 10783.1 10824 713.932 -1102.17 -4337.81 -8115.29 -10951.3 -11489 -10532.5 -9593.25
          1319.17 -549.979 -3928.23 -7939.2 -10854.1 -10972.2 -9590.92 -8451.28 2685.77 849.235 -2513.98 -6535.36
          -8998.44 -8803.8 -7091.76 -5859.2 4849.49 3270.68 414.296 -2880.08 -4614.83 -4206.91 -2905.91 -1959.09
          7471.29 6304.15 4272.77 2082.54 896.019 1016.4 1750.7 2328.63 9978.55 9177.1 7824.31 6415.19
          5574.59 5486.13 5815.21 6115.92 11893.6 11334 10404.5 9440.71 8802.77 8615.98 8720.98 8859.75
          12923 12479.6 11746.7 10981.1 10437.4 10216 10226 10293.3 41.0844 -1827.52 -5141.26 -8950.27
          -11658.6 -11970 -10855.6 -9853.95 623.81 -1325.04 -4840.9 -8947.85 -11665.7 -11490.6 -9930.15 -8723.81
          1969.43 5.13199 -3625.19 -7947.75 -9919.2 -9408.47 -7491.2 -6175.39 4155.39 2418.6 -834.271 -4885.56
          -5844.98 -4925.32 -3369.06 -2322.66 6865.72 5597.06 3355.55 922.872 -9.54899 392.106 1300.44 1954.76
          9472.75 8620.36 7178.55 5699.08 4944.12 4984.73 5410.12 5758.16 11462.9 10879.8 9914.31 8930.69
          8327.19 8200.55 8357.15 8523.63 12531.3 12075.1 11324.9 10553.1 10028.7 9842.31 9885.12 9970.99
        </DataArray>
        <DataArray type="Float32" Name="saturation" NumberOfComponents="1" format="ascii">
          0.857102 0.856988 0.856791 0.856566 0.856369 0.856237 0.85617 0.856146 0.857183 0.857069 0.856874 0.856651
          0.856457 0.85633 0.856267 0.856246 0.857341 0.857231 0.857043 0.856827 0.856641 0.856521 0.856464 0.856445
          0.857563 0.857462 0.857288 0.85709 0.856918 0.856806 0.856752 0.856734 0.857823 0.857733 0.857579 0.857403
          0.857251 0.857148 0.857095 0.857076 0.858078 0.858 0.857866 0.857714 0.85758 0.857486 0.857434 0.857414
          0.858281 0.858213 0.858096 0.857962 0.857842 0.857755 0.857705 0.857683 0.858394 0.858332 0.858224 0.8581
          0.857988 0.857904 0.857855 0.857832 0.856584 0.856446 0.856208 0.855938 0.85571 0.855571 0.855513 0.855499
          0.856669 0.85653 0.856292 0.856021 0.855794 0.855662 0.855612 0.855602 0.856838 0.856703 0.85647 0.856205
          0.855984 0.855863 0.855822 0.855817 0.857081 0.856957 0.856743 0.8565 0.856299 0.856185 0.856144 0.856139
          0.857369 0.85726 0.857073 0.856863 0.856688 0.856583 0.856539 0.856529 0.857654 0.857561 0.857403 0.857225
          0.857075 0.856979 0.856932 0.856918 0.857883 0.857804 0.857668 0.857516 0.857384 0.857294 0.857246 0.857228
          0.858011 0.857939 0.857816 0.857677 0.857555 0.857469 0.85742 0.857401 0.85565 0.855462 0.855139 0.854774
          0.854479 0.85433 0.854295 0.854304 0.855742 0.855551 0.85522 0.854843 0.85454 0.854408 0.854393 0.854413
          0.855932 0.855743 0.855412 0.855031 0.854723 0.854616 0.854623 0.854654 0.856216 0.856041 0.855739 0.855397
          0.855128 0.855017 0.855015 0.855042 0.85656 0.856409 0.856151 0.855865 0.855644 0.855538 0.855519 0.855532
          0.856906 0.856782 0.85657 0.856338 0.856157 0.856058 0.856026 0.856025 0.857187 0.857084 0.856909 0.856718
          0.856563 0.85647 0.85643 0.85642 0.857344 0.857252 0.857098 0.856928 0.856787 0.856697 0.856653 0.856639
          0.854353 0.854089 0.853631 0.853113 0.852709 0.852554 0.852566 0.852614 0.854453 0.85418 0.853698 0.853138
          0.852695 0.852589 0.852652 0.852727 0.854672 0.854395 0.853897 0.853292 0.852774 0.852767 0.852895 0.853002
          0.855015 0.854759 0.854307 0.853784 0.853386 0.853299 0.85339 0.853486 0.855443 0.855224 0.854845 0.854424
          0.854134 0.854039 0.854075 0.854132 0.85588 0.855704 0.855405 0.855083 0.854859 0.854765 0.854764 0.854789
          0.856238 0.856098 0.855862 0.85561 0.855425 0.855331 0.855308 0.855312 0.856439 0.856318 0.856116 0.8559
          0.855733 0.855639 0.855605 0.8556 0.852776 0.852412 0.851777 0.85105 0.85049 0.850336 0.850418 0.850523
          0.852887 0.852503 0.851814 0.850982 0.850295 0.850284 0.850478 0.850638 0.853142 0.852742 0.851998 0.850992
          0.849803 0.850322 0.850713 0.85095 0.853561 0.85319 0.852519 0.851707 0.851082 0.85104 0.85132 0.851555
          0.854095 0.853779 0.853216 0.852566 0.852215 0.852159 0.852283 0.852419 0.854651 0.854403 0.853974 0.853509
          0.853251 0.853182 0.85323 0.853296 0.855108 0.854918 0.854597 0.85426 0.854044 0.853959 0.853961 0.853987
          0.855366 0.855207 0.854943 0.854666 0.854469 0.854376 0.854357 0.854366 0.85103 0.850554 0.849719 0.848759
          0.848029 0.847854 0.848 0.848164 0.851156 0.850648 0.84973 0.848608 0.847712 0.847741 0.848048 0.848296
          0.851457 0.85092 0.849901 0.848444 0.84695 0.847706 0.848287 0.848668 0.851967 0.851464 0.850532 0.849358
          0.848578 0.848639 0.848889 0.849409 0.852627 0.852194 0.851381 0.850255 0.850058 0.850093 0.850292 0.850543
          0.853319 0.852986 0.852387 0.851682 0.851467 0.851454 0.851562 0.851678 0.853892 0.853644 0.853222 0.852776
          0.85254 0.852474 0.852509 0.852559 0.854214 0.854013 0.853679 0.853332 0.853107 0.853016 0.853015 0.853037
          0.849238 0.84865 0.847619 0.846436 0.845527 0.845284 0.845472 0.845689 0.849388 0.848762 0.847636 0.846289
          0.84523 0.845192 0.845564 0.845873 0.849751 0.849091 0.847857 0.846227 0.84471 0.845246 0.845933 0.846379
          0.85037 0.84975 0.84859 0.847068 0.846107 0.84605 0.846851 0.84735 0.851171 0.850641 0.849636 0.848248
          0.847993 0.84807 0.848438 0.848727 0.852006 0.8516 0.850847 0.849818 0.849737 0.849774 0.849946 0.850094
          0.852693 0.852398 0.851888 0.851331 0.851083 0.851027 0.851085 0.851153 0.853079 0.852843 0.852448 0.852038
          0.851782 0.851687 0.851694 0.851726 0.847512 0.84682 0.845605 0.844205 0.8431 0.84274 0.842961 0.843227
          0.847697 0.846963 0.845649 0.844104 0.842874 0.842737 0.843143 0.843497 0.848138 0.847372 0.845952 0.844206
          0.842568 0.843008 0.843725 0.844193 0.848888 0.848189 0.846901 0.8453 0.84399 0.844329 0.845007 0.84545
          0.84984 0.849261 0.848185 0.846744 0.846298 0.846417 0.846791 0.847073 0.850813 0.850379 0.849609 0.848729
          0.848354 0.848336 0.848504 0.848652 0.8516 0.851284 0.850744 0.850172 0.849841 0.849748 0.849799 0.849866
          0.852039 0.851784 0.851358 0.850913 0.850614 0.850492 0.850491 0.850521 0.84594 0.845157 0.843778 0.842177
          0.840862 0.840297 0.840584 0.840906 0.846167 0.845341 0.843854 0.84214 0.840768 0.840456 0.840877 0.84127
          0.846698 0.845836 0.844155 0.842337 0.840851 0.840997 0.841701 0.84217 0.847587 0.846844 0.845492 0.843909
          0.842591 0.842795 0.843343 0.843738 0.848686 0.8481 0.847059 0.845865 0.84511 0.845082 0.845377 0.845625
          0.849779 0.849345 0.848598 0.847782 0.847268 0.847156 0.847275 0.847403 0.850648 0.850328 0.849789 0.849214
          0.848822 0.848676 0.848696 0.84875 0.851128 0.850867 0.850431 0.849969 0.849632 0.849475 0.849452 0.849473
          0.844572 0.843724 0.842225 0.84046 0.838964 0.838263 0.838533 0.83889 0.844848 0.843972 0.842405 0.84055
          0.838999 0.83847 0.838892 0.839318 0.845475 0.844603 0.84301 0.841121 0.839507 0.839402 0.839934 0.840363
          0.846482 0.845733 0.844397 0.842841 0.841647 0.841517 0.84191 0.842262 0.847701 0.84712 0.846108 0.844972
          0.844161 0.843987 0.84419 0.844404 0.848892 0.848465 0.847736 0.846942 0.846375 0.846186 0.846253 0.846358
          0.849828 0.849511 0.848977 0.848402 0.847976 0.847788 0.847777 0.847817 0.850342 0.850081 0.849644 0.849174
          0.848813 0.848628 0.848584 0.848594 0.843401 0.842504 0.840916 0.839038 0.837455 0.836749 0.836967 0.837345
          0.843718 0.8428 0.841153 0.839183 0.837539 0.836939 0.837328 0.837825 0.844421 0.843522 0.841868 0.839878
          0.838278 0.837946 0.838435 0.839039 0.845522 0.844759 0.843394 0.841772 0.840619 0.840376 0.84073 0.841115
          0.846841 0.846256 0.845241 0.8441 0.843277 0.843046 0.843219 0.843432 0.848118 0.847691 0.846965 0.846172
          0.845589 0.84537 0.845416 0.845516 0.849115 0.848798 0.848266 0.847689 0.847251 0.847045 0.847022 0.847057
          0.84966 0.849399 0.848962 0.848488 0.848118 0.847921 0.847869 0.847875 0.842409 0.841475 0.839826 0.83789
          0.836307 0.835684 0.835936 0.836342 0.84275 0.841797 0.840093 0.838053 0.836403 0.835905 0.836335 0.836875
          0.843502 0.842576 0.840893 0.83882 0.837289 0.837048 0.837648 0.838216 0.844671 0.843885 0.842488 0.840851
          0.839693 0.83952 0.839939 0.840341 0.846072 0.845472 0.844435 0.843283 0.84247 0.842278 0.842488 0.842719
          0.847429 0.846993 0.846256 0.845458 0.844884 0.844686 0.844754 0.844865 0.848486 0.848165 0.847627 0.847049
          0.846617 0.846423 0.846412 0.846455 0.849064 0.8488 0.84836 0.847886 0.84752 0.847331 0.847287 0.847299
          0.841588 0.840624 0.838937 0.836994 0.835488 0.835038 0.835388 0.835816 0.841934 0.840948 0.8392 0.837155
          0.835588 0.835304 0.83585 0.836386 0.842706 0.841743 0.840019 0.837976 0.836496 0.836433 0.837156 0.837738
          0.843918 0.84309 0.841634 0.839984 0.838886 0.838862 0.839395 0.839838 0.845389 0.844756 0.843672 0.8425
          0.841739 0.841648 0.841942 0.842213 0.846823 0.846367 0.845603 0.844796 0.844254 0.844117 0.844238 0.844377
          0.847943 0.847611 0.847059 0.846479 0.846067 0.845908 0.84593 0.845991 0.848555 0.848285 0.847838 0.847364
          0.847012 0.846847 0.846825 0.84685 0.840962 0.839969 0.838244 0.836297 0.83488 0.834616 0.835087 0.835554
          0.841297 0.840269 0.838459 0.836386 0.834928 0.83487 0.835555 0.836127 0.842062 0.841037 0.839209 0.837102
          0.835851 0.835949 0.836817 0.837451 0.843294 0.842392 0.840797 0.839014 0.838098 0.838312 0.839 0.839507
          0.844826 0.844139 0.842963 0.841723 0.841063 0.841129 0.841538 0.841861 0.846333 0.845847 0.845036 0.844204
          0.843714 0.843662 0.843854 0.844029 0.847512 0.847165 0.846593 0.846006 0.845621 0.845509 0.845572 0.845656
          0.848157 0.847878 0.847421 0.846947 0.846613 0.846478 0.846484 0.846525 0.840592 0.839577 0.837824 0.835876
          0.834533 0.83438 0.834927 0.835424 0.840913 0.839848 0.83798 0.835877 0.834529 0.834615 0.835386 0.83599
          0.84166 0.840572 0.838619 0.836381 0.835391 0.835646 0.836613 0.837288 0.842896 0.841911 0.840114 0.837957
          0.837458 0.837936 0.838754 0.839312 0.844469 0.843727 0.84244 0.841078 0.840564 0.840785 0.841287 0.841651
          0.846026 0.845512 0.844653 0.843786 0.843349 0.843372 0.843618 0.84382 0.847245 0.846885 0.846294 0.845698
          0.845336 0.84526 0.845354 0.845454 0.847911 0.847625 0.847159 0.846684 0.846363 0.84625 0.846276 0.846328
        </DataArray>
        <DataArray type="Float32" Name="process rank" NumberOfComponents="1" format="ascii">
          0 0 0 0 0 0 0 0 0 0 0 0
          0 0 0 0 0 0 0 0 0 0 0 0
          0 0 0 0 0 0 0 0 0 0 0 0
          0 0 0 0 0 0 0 0 0 0 0 0
          0 0 0 0 0 0 0 0 0 0 0 0
          0 0 0 0 0 0 0 0 0 0 0 0
          0 0 0 0 0 0 0 0 0 0 0 0
          0 0 0 0 0 0 0 0 0 0 0 0
          0 0 0 0 0 0 0 0 0 0 0 0
          0 0 0 0 0 0 0 0 0 0 0 0
          0 0 0 0 0 0 0 0 0 0 0 0
          0 0 0 0 0 0 0 0 0 0 0 0
          0 0 0 0 0 0 0 0 0 0 0 0
          0 0 0 0 0 0 0 0 0 0 0 0
          0 0 0 0 0 0 0 0 0 0 0 0
          0 0 0 0 0 0 0 0 0 0 0 0
          0 0 0 0 0 0 0 0 0 0 0 0
          0 0 0 0 0 0 0 0 0 0 0 0
          0 0 0 0 0 0 0 0 0 0 0 0
          0 0 0 0 0 0 0 0 0 0 0 0
          0 0 0 0 0 0 0 0 0 0 0 0
          0 0 0 0 0 0 0 0 0 0 0 0
          0 0 0 0 0 0 0 0 0 0 0 0
          0 0 0 0 0 0 0 0 0 0 0 0
          0 0 0 0 0 0 0 0 0 0 0 0
          0 0 0 0 0 0 0 0 0 0 0 0
          0 0 0 0 0 0 0 0 0 0 0 0
          0 0 0 0 0 0 0 0 0 0 0 0
          0 0 0 0 0 0 0 0 0 0 0 0
          0 0 0 0 0 0 0 0 0 0 0 0
          0 0 0 0 0 0 0 0 0 0 0 0
          0 0 0 0 0 0 0 0 0 0 0 0
          0 0 0 0 0 0 0 0 0 0 0 0
          0 0 0 0 0 0 0 0 0 0 0 0
          0 0 0 0 0 0 0 0 0 0 0 0
          0 0 0 0 0 0 0 0 0 0 0 0
          0 0 0 0 0 0 0 0 0 0 0 0
          0 0 0 0 0 0 0 0 0 0 0 0
          0 0 0 0 0 0 0 0 0 0 0 0
          0 0 0 0 0 0 0 0 0 0 0 0
          0 0 0 0 0 0 0 0 0 0 0 0
          0 0 0 0 0 0 0 0 0 0 0 0
          0 0 0 0 0 0 0 0 0 0 0 0
          0 0 0 0 0 0 0 0 0 0 0 0
          0 0 0 0 0 0 0 0 0 0 0 0
          0 0 0 0 0 0 0 0 0 0 0 0
          0 0 0 0 0 0 0 0 0 0 0 0
          0 0 0 0 0 0 0 0 0 0 0 0
          0 0 0 0 0 0 0 0 0 0 0 0
          0 0 0 0 0 0 0 0 0 0 0 0
          0 0 0 0 0 0 0 0 0 0 0 0
          0 0 0 0 0 0 0 0 0 0 0 0
          0 0 0 0 0 0 0 0 0 0 0 0
          0 0 0 0 0 0 0 0 0 0 0 0
          0 0 0 0 0 0 0 0 0 0 0 0
          0 0 0 0 0 0 0 0 0 0 0 0
          0 0 0 0 0 0 0 0 0 0 0 0
          0 0 0 0 0 0 0 0 0 0 0 0
          0 0 0 0 0 0 0 0 0 0 0 0
          0 0 0 0 0 0 0 0 0 0 0 0
          0 0 0 0 0 0 0 0 0 0 0 0
          0 0 0 0 0 0 0 0 0 0 0 0
          0 0 0 0 0 0 0 0 0 0 0 0
          0 0 0 0 0 0 0 0 0 0 0 0
          0 0 0 0 0 0 0 0 0 0 0 0
          0 0 0 0 0 0 0 0 0 0 0 0
          0 0 0 0 0 0 0 0 0 0 0 0
          0 0 0 0 0 0 0 0 0 0 0 0
          0 0 0 0 0 0 0 0 0 0 0 0
          0 0 0 0 0 0 0 0 0 0 0 0
          0 0 0 0 0 0 0 0 0 0 0 0
          0 0 0 0 0 0 0 0 0 0 0 0
          0 0 0 0 0 0 0 0 0 0 0 0
          0 0 0 0 0 0 0 0 0 0 0 0
          0 0 0 0 0 0 0 0 0 0 0 0
          0 0 0 0 0 0 0 0 0 0 0 0
          0 0 0 0 0 0 0 0 0 0 0 0
          0 0 0 0 0 0 0 0 0 0 0 0
          0 0 0 0 0 0 0 0 0 0 0 0
          0 0 0 0 0 0 0 0 0 0 0 0
        </DataArray>
      </CellData>
      <Points>
        <DataArray type="Float32" Name="Coordinates" NumberOfComponents="3" format="ascii">
          -0.04 -0.04 -0.15 -0.03 -0.04 -0.15 -0.04 -0.03 -0.15 -0.03 -0.03 -0.15
          -0.04 -0.04 -0.14 -0.03 -0.04 -0.14 -0.04 -0.03 -0.14 -0.03 -0.03 -0.14
          -0.02 -0.04 -0.15 -0.02 -0.03 -0.15 -0.02 -0.04 -0.14 -0.02 -0.03 -0.14
          -0.01 -0.04 -0.15 -0.01 -0.03 -0.15 -0.01 -0.04 -0.14 -0.01 -0.03 -0.14
          0 -0.04 -0.15 0 -0.03 -0.15 0 -0.04 -0.14 0 -0.03 -0.14
          0.01 -0.04 -0.15 0.01 -0.03 -0.15 0.01 -0.04 -0.14 0.01 -0.03 -0.14
          0.02 -0.04 -0.15 0.02 -0.03 -0.15 0.02 -0.04 -0.14 0.02 -0.03 -0.14
          0.03 -0.04 -0.15 0.03 -0.03 -0.15 0.03 -0.04 -0.14 0.03 -0.03 -0.14
          0.04 -0.04 -0.15 0.04 -0.03 -0.15 0.04 -0.04 -0.14 0.04 -0.03 -0.14
          -0.04 -0.02 -0.15 -0.03 -0.02 -0.15 -0.04 -0.02 -0.14 -0.03 -0.02 -0.14
          -0.02 -0.02 -0.15 -0.02 -0.02 -0.14 -0.01 -0.02 -0.15 -0.01 -0.02 -0.14
          0 -0.02 -0.15 0 -0.02 -0.14 0.01 -0.02 -0.15 0.01 -0.02 -0.14
          0.02 -0.02 -0.15 0.02 -0.02 -0.14 0.03 -0.02 -0.15 0.03 -0.02 -0.14
          0.04 -0.02 -0.15 0.04 -0.02 -0.14 -0.04 -0.01 -0.15 -0.03 -0.01 -0.15
          -0.04 -0.01 -0.14 -0.03 -0.01 -0.14 -0.02 -0.01 -0.15 -0.02 -0.01 -0.14
          -0.01 -0.01 -0.15 -0.01 -0.01 -0.14 0 -0.01 -0.15 0 -0.01 -0.14
          0.01 -0.01 -0.15 0.01 -0.01 -0.14 0.02 -0.01 -0.15 0.02 -0.01 -0.14
          0.03 -0.01 -0.15 0.03 -0.01 -0.14 0.04 -0.01 -0.15 0.04 -0.01 -0.14
          -0.04 0 -0.15 -0.03 0 -0.15 -0.04 0 -0.14 -0.03 0 -0.14
          -0.02 0 -0.15 -0.02 0 -0.14 -0.01 0 -0.15 -0.01 0 -0.14
          0 0 -0.15 0 0 -0.14 0.01 0 -0.15 0.01 0 -0.14
          0.02 0 -0.15 0.02 0 -0.14 0.03 0 -0.15 0.03 0 -0.14
          0.04 0 -0.15 0.04 0 -0.14 -0.04 0.01 -0.15 -0.03 0.01 -0.15
          -0.04 0.01 -0.14 -0.03 0.01 -0.14 -0.02 0.01 -0.15 -0.02 0.01 -0.14
          -0.01 0.01 -0.15 -0.01 0.01 -0.14 0 0.01 -0.15 0 0.01 -0.14
          0.01 0.01 -0.15 0.01 0.01 -0.14 0.02 0.01 -0.15 0.02 0.01 -0.14
          0.03 0.01 -0.15 0.03 0.01 -0.14 0.04 0.01 -0.15 0.04 0.01 -0.14
          -0.04 0.02 -0.15 -0.03 0.02 -0.15 -0.04 0.02 -0.14 -0.03 0.02 -0.14
          -0.02 0.02 -0.15 -0.02 0.02 -0.14 -0.01 0.02 -0.15 -0.01 0.02 -0.14
          0 0.02 -0.15 0 0.02 -0.14 0.01 0.02 -0.15 0.01 0.02 -0.14
          0.02 0.02 -0.15 0.02 0.02 -0.14 0.03 0.02 -0.15 0.03 0.02 -0.14
          0.04 0.02 -0.15 0.04 0.02 -0.14 -0.04 0.03 -0.15 -0.03 0.03 -0.15
          -0.04 0.03 -0.14 -0.03 0.03 -0.14 -0.02 0.03 -0.15 -0.02 0.03 -0.14
          -0.01 0.03 -0.15 -0.01 0.03 -0.14 0 0.03 -0.15 0 0.03 -0.14
          0.01 0.03 -0.15 0.01 0.03 -0.14 0.02 0.03 -0.15 0.02 0.03 -0.14
          0.03 0.03 -0.15 0.03 0.03 -0.14 0.04 0.03 -0.15 0.04 0.03 -0.14
          -0.04 0.04 -0.15 -0.03 0.04 -0.15 -0.04 0.04 -0.14 -0.03 0.04 -0.14
          -0.02 0.04 -0.15 -0.02 0.04 -0.14 -0.01 0.04 -0.15 -0.01 0.04 -0.14
          0 0.04 -0.15 0 0.04 -0.14 0.01 0.04 -0.15 0.01 0.04 -0.14
          0.02 0.04 -0.15 0.02 0.04 -0.14 0.03 0.04 -0.15 0.03 0.04 -0.14
          0.04 0.04 -0.15 0.04 0.04 -0.14 -0.04 -0.04 -0.13 -0.03 -0.04 -0.13
          -0.04 -0.03 -0.13 -0.03 -0.03 -0.13 -0.02 -0.04 -0.13 -0.02 -0.03 -0.13
          -0.01 -0.04 -0.13 -0.01 -0.03 -0.13 0 -0.04 -0.13 0 -0.03 -0.13
          0.01 -0.04 -0.13 0.01 -0.03 -0.13 0.02 -0.04 -0.13 0.02 -0.03 -0.13
          0.03 -0.04 -0.13 0.03 -0.03 -0.13 0.04 -0.04 -0.13 0.04 -0.03 -0.13
          -0.04 -0.02 -0.13 -0.03 -0.02 -0.13 -0.02 -0.02 -0.13 -0.01 -0.02 -0.13
          0 -0.02 -0.13 0.01 -0.02 -0.13 0.02 -0.02 -0.13 0.03 -0.02 -0.13
          0.04 -0.02 -0.13 -0.04 -0.01 -0.13 -0.03 -0.01 -0.13 -0.02 -0.01 -0.13
          -0.01 -0.01 -0.13 0 -0.01 -0.13 0.01 -0.01 -0.13 0.02 -0.01 -0.13
          0.03 -0.01 -0.13 0.04 -0.01 -0.13 -0.04 0 -0.13 -0.03 0 -0.13
          -0.02 0 -0.13 -0.01 0 -0.13 0 0 -0.13 0.01 0 -0.13
          0.02 0 -0.13 0.03 0 -0.13 0.04 0 -0.13 -0.04 0.01 -0.13
          -0.03 0.01 -0.13 -0.02 0.01 -0.13 -0.01 0.01 -0.13 0 0.01 -0.13
          0.01 0.01 -0.13 0.02 0.01 -0.13 0.03 0.01 -0.13 0.04 0.01 -0.13
          -0.04 0.02 -0.13 -0.03 0.02 -0.13 -0.02 0.02 -0.13 -0.01 0.02 -0.13
          0 0.02 -0.13 0.01 0.02 -0.13 0.02 0.02 -0.13 0.03 0.02 -0.13
          0.04 0.02 -0.13 -0.04 0.03 -0.13 -0.03 0.03 -0.13 -0.02 0.03 -0.13
          -0.01 0.03 -0.13 0 0.03 -0.13 0.01 0.03 -0.13 0.02 0.03 -0.13
          0.03 0.03 -0.13 0.04 0.03 -0.13 -0.04 0.04 -0.13 -0.03 0.04 -0.13
          -0.02 0.04 -0.13 -0.01 0.04 -0.13 0 0.04 -0.13 0.01 0.04 -0.13
          0.02 0.04 -0.13 0.03 0.04 -0.13 0.04 0.04 -0.13 -0.04 -0.04 -0.12
          -0.03 -0.04 -0.12 -0.04 -0.03 -0.12 -0.03 -0.03 -0.12 -0.02 -0.04 -0.12
          -0.02 -0.03 -0.12 -0.01 -0.04 -0.12 -0.01 -0.03 -0.12 0 -0.04 -0.12
          0 -0.03 -0.12 0.01 -0.04 -0.12 0.01 -0.03 -0.12 0.02 -0.04 -0.12
          0.02 -0.03 -0.12 0.03 -0.04 -0.12 0.03 -0.03 -0.12 0.04 -0.04 -0.12
          0.04 -0.03 -0.12 -0.04 -0.02 -0.12 -0.03 -0.02 -0.12 -0.02 -0.02 -0.12
          -0.01 -0.02 -0.12 0 -0.02 -0.12 0.01 -0.02 -0.12 0.02 -0.02 -0.12
          0.03 -0.02 -0.12 0.04 -0.02 -0.12 -0.04 -0.01 -0.12 -0.03 -0.01 -0.12
          -0.02 -0.01 -0.12 -0.01 -0.01 -0.12 0 -0.01 -0.12 0.01 -0.01 -0.12
          0.02 -0.01 -0.12 0.03 -0.01 -0.12 0.04 -0.01 -0.12 -0.04 0 -0.12
          -0.03 0 -0.12 -0.02 0 -0.12 -0.01 0 -0.12 0 0 -0.12
          0.01 0 -0.12 0.02 0 -0.12 0.03 0 -0.12 0.04 0 -0.12
          -0.04 0.01 -0.12 -0.03 0.01 -0.12 -0.02 0.01 -0.12 -0.01 0.01 -0.12
          0 0.01 -0.12 0.01 0.01 -0.12 0.02 0.01 -0.12 0.03 0.01 -0.12
          0.04 0.01 -0.12 -0.04 0.02 -0.12 -0.03 0.02 -0.12 -0.02 0.02 -0.12
          -0.01 0.02 -0.12 0 0.02 -0.12 0.01 0.02 -0.12 0.02 0.02 -0.12
          0.03 0.02 -0.12 0.04 0.02 -0.12 -0.04 0.03 -0.12 -0.03 0.03 -0.12
          -0.02 0.03 -0.12 -0.01 0.03 -0.12 0 0.03 -0.12 0.01 0.03 -0.12
          0.02 0.03 -0.12 0.03 0.03 -0.12 0.04 0.03 -0.12 -0.04 0.04 -0.12
          -0.03 0.04 -0.12 -0.02 0.04 -0.12 -0.01 0.04 -0.12 0 0.04 -0.12
          0.01 0.04 -0.12 0.02 0.04 -0.12 0.03 0.04 -0.12 0.04 0.04 -0.12
          -0.04 -0.04 -0.11 -0.03 -0.04 -0.11 -0.04 -0.03 -0.11 -0.03 -0.03 -0.11
          -0.02 -0.04 -0.11 -0.02 -0.03 -0.11 -0.01 -0.04 -0.11 -0.01 -0.03 -0.11
          0 -0.04 -0.11 0 -0.03 -0.11 0.01 -0.04 -0.11 0.01 -0.03 -0.11
          0.02 -0.04 -0.11 0.02 -0.03 -0.11 0.03 -0.04 -0.11 0.03 -0.03 -0.11
          0.04 -0.04 -0.11 0.04 -0.03 -0.11 -0.04 -0.02 -0.11 -0.03 -0.02 -0.11
          -0.02 -0.02 -0.11 -0.01 -0.02 -0.11 0 -0.02 -0.11 0.01 -0.02 -0.11
          0.02 -0.02 -0.11 0.03 -0.02 -0.11 0.04 -0.02 -0.11 -0.04 -0.01 -0.11
          -0.03 -0.01 -0.11 -0.02 -0.01 -0.11 -0.01 -0.01 -0.11 0 -0.01 -0.11
          0.01 -0.01 -0.11 0.02 -0.01 -0.11 0.03 -0.01 -0.11 0.04 -0.01 -0.11
          -0.04 0 -0.11 -0.03 0 -0.11 -0.02 0 -0.11 -0.01 0 -0.11
          0 0 -0.11 0.01 0 -0.11 0.02 0 -0.11 0.03 0 -0.11
          0.04 0 -0.11 -0.04 0.01 -0.11 -0.03 0.01 -0.11 -0.02 0.01 -0.11
          -0.01 0.01 -0.11 0 0.01 -0.11 0.01 0.01 -0.11 0.02 0.01 -0.11
          0.03 0.01 -0.11 0.04 0.01 -0.11 -0.04 0.02 -0.11 -0.03 0.02 -0.11
          -0.02 0.02 -0.11 -0.01 0.02 -0.11 0 0.02 -0.11 0.01 0.02 -0.11
          0.02 0.02 -0.11 0.03 0.02 -0.11 0.04 0.02 -0.11 -0.04 0.03 -0.11
          -0.03 0.03 -0.11 -0.02 0.03 -0.11 -0.01 0.03 -0.11 0 0.03 -0.11
          0.01 0.03 -0.11 0.02 0.03 -0.11 0.03 0.03 -0.11 0.04 0.03 -0.11
          -0.04 0.04 -0.11 -0.03 0.04 -0.11 -0.02 0.04 -0.11 -0.01 0.04 -0.11
          0 0.04 -0.11 0.01 0.04 -0.11 0.02 0.04 -0.11 0.03 0.04 -0.11
          0.04 0.04 -0.11 -0.04 -0.04 -0.1 -0.03 -0.04 -0.1 -0.04 -0.03 -0.1
          -0.03 -0.03 -0.1 -0.02 -0.04 -0.1 -0.02 -0.03 -0.1 -0.01 -0.04 -0.1
          -0.01 -0.03 -0.1 0 -0.04 -0.1 0 -0.03 -0.1 0.01 -0.04 -0.1
          0.01 -0.03 -0.1 0.02 -0.04 -0.1 0.02 -0.03 -0.1 0.03 -0.04 -0.1
          0.03 -0.03 -0.1 0.04 -0.04 -0.1 0.04 -0.03 -0.1 -0.04 -0.02 -0.1
          -0.03 -0.02 -0.1 -0.02 -0.02 -0.1 -0.01 -0.02 -0.1 0 -0.02 -0.1
          0.01 -0.02 -0.1 0.02 -0.02 -0.1 0.03 -0.02 -0.1 0.04 -0.02 -0.1
          -0.04 -0.01 -0.1 -0.03 -0.01 -0.1 -0.02 -0.01 -0.1 -0.01 -0.01 -0.1
          0 -0.01 -0.1 0.01 -0.01 -0.1 0.02 -0.01 -0.1 0.03 -0.01 -0.1
          0.04 -0.01 -0.1 -0.04 0 -0.1 -0.03 0 -0.1 -0.02 0 -0.1
          -0.01 0 -0.1 0 0 -0.1 0.01 0 -0.1 0.02 0 -0.1
          0.03 0 -0.1 0.04 0 -0.1 -0.04 0.01 -0.1 -0.03 0.01 -0.1
          -0.02 0.01 -0.1 -0.01 0.01 -0.1 0 0.01 -0.1 0.01 0.01 -0.1
          0.02 0.01 -0.1 0.03 0.01 -0.1 0.04 0.01 -0.1 -0.04 0.02 -0.1
          -0.03 0.02 -0.1 -0.02 0.02 -0.1 -0.01 0.02 -0.1 0 0.02 -0.1
          0.01 0.02 -0.1 0.02 0.02 -0.1 0.03 0.02 -0.1 0.04 0.02 -0.1
          -0.04 0.03 -0.1 -0.03 0.03 -0.1 -0.02 0.03 -0.1 -0.01 0.03 -0.1
          0 0.03 -0.1 0.01 0.03 -0.1 0.02 0.03 -0.1 0.03 0.03 -0.1