<?xml version="1.0"?>
<VTKFile type="UnstructuredGrid" version="0.1" byte_order="LittleEndian">
  <UnstructuredGrid>
    <Piece NumberOfCells="960" NumberOfPoints="1296">
      <CellData Scalars="p (Pa)">
        <DataArray type="Float32" Name="p (Pa)" NumberOfComponents="1" format="ascii">
          36696 36695.9 36695.5 36694.4 36693.2 36694.3 36695.5 36695.9 36696 36695.7 36694.6 36691.5
          36687.9 36691.2 36694.3 36695.5 36695.9 36695.4 36693.3 36687.3 36679.8 36686.1 36692.3 36694.9
          36696 36695.6 36694.3 36690.7 36686.4 36688.4 36692.5 36694.7 36696 36695.8 36695.1 36693.5
          36692.4 36692.9 36694.4 36695.4 36696 36695.9 36695.6 36695.1 36695 36695.2 36695.6 36695.9
          36696.1 36696 36695.9 36695.8 36695.8 36695.9 36696 36696 36696.1 36696.1 36696 36696
          36696 36696 36696.1 36696.1 36597.8 36597.2 36594.8 36588.3 36580.7 36587.9 36594.4 36596.9
          36597.6 36596 36589.1 36570.1 36546.4 36568.2 36587.4 36594.8 36597.2 36594.2 36580.8 36542.1
          36489.5 36534.6 36574.7 36590.6 36597.4 36595.3 36586.8 36564.4 36536.5 36548.6 36574.6 36589.2
          36597.6 36596.2 36591.2 36580.9 36575.1 36578.4 36587.5 36593.7 36597.8 36597.1 36594.8 36591.1
          36591.2 36592.6 36595 36596.7 36597.9 36597.7 36597 36595.9 36596.3 36596.8 36597.3 36597.7
          36597.9 36597.9 36597.7 36597.4 36597.6 36597.7 36597.8 36597.9 36499.1 36496.1 36483.2 36448.1
          36405.9 36446.6 36481.5 36494.5 36497.8 36489.2 36451.7 36343.4 36198.2 36334.2 36442.9 36482.9
          36495.8 36478.9 36402.1 36165.2 35796.2 36122.5 36366.5 36458.5 36496.8 36485.1 36436.3 36305
          36135.8 36199.3 36356.9 36447.2 36497.4 36488.7 36456.6 36390.4 36366.6 36386.2 36437.7 36474.4
          36498.5 36494.1 36478.9 36453.3 36459.3 36469.3 36482.6 36492.3 36499.4 36497.9 36493.1 36485.9
          36489.7 36493.3 36496.2 36498.2 36499.7 36499.3 36498 36496.2 36497.5 36498.5 36499.2 36499.6
          36398.8 36386.7 36335.1 36190.4 36007.1 36187.6 36329.1 36380.5 36393.3 36358.1 36199.2 35711.5
          34966.7 35682.5 36164.1 36331.9 36384.9 36311.7 35962.3 34736.5 32139.8 34537.8 35795.3 36219.3
          36388.3 36335.5 36113 35490.6 34631.1 34835.3 35668.6 36144.8 36389.5 36344.5 36171.7 35797.4
          35779.8 35873.4 36101.9 36281.1 36394.8 36370.7 36285.3 36133.3 36205.1 36265.2 36321.9 36367.2
          36399.3 36391.2 36364.2 36322.4 36350.9 36372.5 36385.5 36394.5 36401.1 36398.8 36391.7 36381.6
          36389.6 36395.8 36398.7 36400.4 36295.3 36262 36118.3 35706.2 35156.3 35716.5 36106.9 36245.5
          36279.5 36177.4 35702.3 34101.4 31042.2 34095.1 35612.8 36102.2 36253 36026.4 34849.7 29383.5
          2231 28700.4 34259.5 35721.6 36259.5 36083.8 35318.8 33005.3 29492.7 28605.6 33081.5 35333.2
          36257.6 36076.9 35311.2 33260.1 34082.8 34478.1 35175.4 35876.1 36276.2 36174.8 35786.3 34980.4
          35557.6 35858.4 36029.3 36187.2 36293.8 36259.9 36141.2 35940.2 36104.5 36206.7 36249.8 36279.9
          36300.8 36291.5 36261.2 36216.2 36255.5 36283.1 36293.6 36299.3 36190.7 36133.8 35896.4 35245
          34500.7 35313.3 35887 36106.3 36161.2 35979.8 35147.2 32333.3 28079.7 32896.1 35067.6 35856.4
          36107.3 35673.1 33313.2 19098.4 -25693.1 24058.5 32176.2 35069.5 36106.9 35708.8 33900 27850.9
          24099.2 26462.4 22372 33677.2 36088 35581.1 32930.1 17931.5 30749.4 33011.4 33092.4 35226.7
          36130.8 35830.6 34495 30338 34091 35289.4 35586 35960.1 36178.6 36079.6 35703.2 34944.1
          35638 35986.2 36090.3 36157.5 36197.8 36171.3 36080.2 35932.7 36069.9 36156.2 36184.2 36196.8
          36087.6 36020.7 35767.2 35121.4 34270.6 34939.6 35683.6 35976.6 36047.9 35836.2 34974.7 32433.2
          28086.8 32562.9 34959.9 35762.6 35974.1 35460.3 33064.3 22475.4 -18958.9 23593.2 32698.1 35154
          35964.7 35396 32671.8 20046.3 12337.9 4092.67 28950.5 34433.8 35945.8 35254.8 31628.6 10797.2
          27600.6 30609.1 33877.4 35399.9 35993.5 35500.2 32905.5 18030.7 32180.1 34668.5 35546.2 35913.8
          36065.4 35901.9 35220.6 33496.9 35109.5 35767.4 35988.6 36066.9 36095.3 36052.2 35896.2 35614.5
          35878.8 36031.1 36083.4 36099.6 35973.5 35870.4 35540.9 34861.8 33650.1 33457.8 35107.8 35733.7
          35900.8 35565.8 34428.3 32132.8 27340.1 31603.6 34602.9 35552 35772.1 34942.6 31539.5 23258.3
          -24682.7 22684.1 32944.1 35082.5 35833.1 35208.4 32598.1 23794.6 -6937.23 23026.5 32769.7 35102.3
          35861.9 35252.8 32095.1 13041.4 26094.8 32132.1 34763.1 35627 35929.9 35618.6 34277.6 30522.9
          33347.4 34969.4 35667.8 35902.5 35982.5 35885.1 35520.3 34806.9 35378.2 35772.7 35935.1 35986.6
          36001.9 35976.6 35889.9 35750.2 35868 35958.3 35994.2 36004.9 35846.9 35666.6 35124.7 34254.7
          32030.6 25636.4 33471.1 35222.6 35707.4 35053.7 32734.2 30303.5 26057.5 27781.8 33304.3 34886.2
          35442.6 33459.3 19300.5 7566.3 -26016.4 12983 31481.8 33916.1 35671.3 34862.5 31731.1 25803.4
          2061.26 27149.7 33518.9 34971.9 35806.6 35451 34098.1 30821.3 30003.3 33433.4 35116.6 35618.2
          35872.3 35739.4 35258 34299.5 34563.3 35310.5 35713.3 35842.2 35900.1 35862.8 35735.4 35518.4
          35625.3 35788.1 35871.7 35898.2 35908.4 35899.2 35869.2 35823.5 35852.2 35887.1 35903.8 35908.9
          35759.6 35616.6 35179 34206.7 31201.7 20125.3 32226.7 34693.9 35656.5 35213.2 33827.5 31425.9
          25409.8 16917 30882.2 33498.9 35486.6 34433.1 30400.5 23051.7 -13421.6 20097.1 28900.3 28605.1
          35623.3 35043.1 33030.7 28770.1 24541.1 30363.8 33299 34064.6 35742.6 35528.4 34816.7 33468.6
          33056.9 34345 35150.8 35424 35793.1 35731.8 35532.7 35191.3 35196.9 35488.9 35674.5 35740.4
          35808.6 35794.5 35749.7 35678.6 35694.8 35753.7 35789.3 35801.7 35812.2 35809.2 35799.7 35785.8
          35791.3 35802.8 35809.3 35811.5 35659 35508.3 35048.5 34153.5 32323.7 29509.6 32775.2 34622.9
          35548.1 35053.3 33353.8 30316.1 25000.2 14833.2 27706 33086.1 35356.2 34057.7 27013.8 12056.7
          -11824.2 -6682.74 11307.8 30450.9 35490.1 34721.3 31349.3 16546.1 24817.5 28458.1 31405.9 34001.6
          35636.3 35384.5 34477.6 32483.9 33275.8 34194 34853.2 35316.6 35695.8 35636.6 35442.3 35108.6
          35229.5 35428 35562.5 35642.1 35711.4 35700.5 35666.2 35613.4 35633.5 35669.2 35692.1 35704.1
          35714.4 35712.6 35706.9 35698.6 35702.1 35708.1 35711.8 35713.5 35581.4 35474.8 35100.4 34165.8
          32511 31132.1 32561.3 34533.1 35513.9 35184.3 33922.4 30281.3 22958.1 14963.2 22469.3 32918.3
          35405.2 34649 31106.2 12985.9 -46204.2 14065.3 27864.6 33237.1 35478.9 35002.9 33027.1 26334.7
          24416.3 30219.8 33251.9 34728.2 35567.7 35407 34826.8 33563.6 33453.5 34410.3 35065.1 35394.1
          35605 35567.3 35441.2 35213.6 35219.1 35391 35514.4 35574.6 35614.8 35608 35586.2 35550.6
          35554.5 35581.9 35601.4 35610.5 35616.6 35615.5 35612 35606.8 35607.7 35611.9 35614.8 35616.1
          35501.1 35438.7 35185.5 34454.5 33212.4 33495.7 34334.6 35058 35468.9 35287.2 34513.4 32000.9
          26357.1 29119 32375.5 34518.9 35418.7 35037.5 33275.6 25959.1 -12794.7 20097.9 31934.1 34515.8
          35445.1 35177.2 34080 30950.4 27228.6 31457.3 34184.8 35104.4 35490.3 35392 35028.7 34228.4
          33806.3 34589 35181.9 35408.8 35511.5 35487.3 35403.3 35242.9 35200.4 35343.9 35453.9 35497.2
          35517.5 35513 35498 35471.9 35469 35491.8 35508.8 35515.5 35518.6 35517.9 35515.5 35511.5
          35511.6 35515 35517.4 35518.4 35407.7 35353.5 35106.8 34307.4 32824 34087 34912.9 35251.7
          35382.7 35222.4 34458.2 31567.2 22057.5 30988.4 34085 35041.1 35336.4 34978.4 33203.2 25105.3
          -29926.7 23541.1 33129.6 34899.5 35325.5 34939.4 33194.9 27528.4 25437 31748.5 34453.8 35180.5
          35378.2 35219.9 34604.5 33234 33341.1 34520.1 35158.4 35352.7 35409.1 35368.3 35223.3 34957.4
          35021.5 35243.1 35367.6 35406.7 35418.4 35410.7 35384.6 35341.7 35356.3 35392.2 35412.2 35418.5
          35420.4 35419.1 35414.8 35408.4 35411 35416.5 35419.5 35420.4 35309.3 35254.5 35015.2 34317.4
          33347.5 34389.6 35035.3 35244.3 35278.6 35095.5 34265.1 31559.7 26592.8 32208.9 34509.2 35125.5
          35204.2 34695.6 32177 21132.7 -20369.5 26892.7 33680.4 34981.8 35137 34290.6 29337.4 -10638
          22055.3 31773.4 34507.2 35145 35237.6 34899.5 33440.5 29367.2 32323 34330.8 35077.2 35267.9
          35299.4 35214.9 34902 34302.1 34725.8 35111.8 35269.2 35310.6 35318.1 35302.3 35248.6 35161.1
          35223.7 35287 35313.6 35320.6 35321.9 35319.3 35310.8 35298.2 35307.4 35317.1 35321.3 35322.4
        </DataArray>
        <DataArray type="Float32" Name="saturation" NumberOfComponents="1" format="ascii">
          0.301554 0.301554 0.301554 0.301553 0.301551 0.301553 0.301554 0.301554 0.301554 0.301554 0.301553 0.301549
          0.301546 0.301549 0.301553 0.301554 0.301554 0.301554 0.301551 0.301545 0.301537 0.301544 0.30155 0.301553
          0.301554 0.301554 0.301553 0.301549 0.301544 0.301546 0.301551 0.301553 0.301554 0.301554 0.301553 0.301552
          0.30155 0.301551 0.301553 0.301554 0.301554 0.301554 0.301554 0.301553 0.301553 0.301553 0.301554 0.301554
          0.301554 0.301554 0.301554 0.301554 0.301554 0.301554 0.301554 0.301554 0.301554 0.301554 0.301554 0.301554
          0.301554 0.301554 0.301554 0.301554 0.301448 0.301447 0.301444 0.301437 0.301429 0.301437 0.301444 0.301447
          0.301447 0.301446 0.301438 0.301418 0.301392 0.301415 0.301436 0.301444 0.301447 0.301444 0.301429 0.301387
          0.30133 0.301379 0.301422 0.30144 0.301447 0.301445 0.301436 0.301411 0.301381 0.301394 0.301422 0.301438
          0.301447 0.301446 0.30144 0.301429 0.301423 0.301427 0.301436 0.301443 0.301448 0.301447 0.301444 0.30144
          0.30144 0.301442 0.301445 0.301446 0.301448 0.301447 0.301447 0.301446 0.301446 0.301447 0.301447 0.301447
          0.301448 0.301448 0.301447 0.301447 0.301447 0.301448 0.301448 0.301448 0.301341 0.301337 0.301323 0.301285
          0.30124 0.301284 0.301321 0.301335 0.301339 0.30133 0.301289 0.301172 0.301016 0.301162 0.30128 0.301323
          0.301337 0.301319 0.301236 0.30098 0.300586 0.300934 0.301197 0.301297 0.301338 0.301325 0.301273 0.301131
          0.300949 0.301017 0.301187 0.301284 0.301339 0.301329 0.301295 0.301223 0.301197 0.301218 0.301274 0.301314
          0.30134 0.301335 0.301319 0.301291 0.301297 0.301308 0.301323 0.301333 0.301341 0.301339 0.301334 0.301326
          0.30133 0.301334 0.301337 0.30134 0.301341 0.301341 0.301339 0.301337 0.301339 0.30134 0.301341 0.301341
          0.301232 0.301219 0.301163 0.301007 0.300811 0.301004 0.301157 0.301212 0.301226 0.301188 0.301017 0.300495
          0.299711 0.300465 0.300979 0.30116 0.301217 0.301138 0.300763 0.299472 0.296861 0.299266 0.300585 0.301038
          0.301221 0.301164 0.300924 0.300261 0.299363 0.299575 0.30045 0.300958 0.301222 0.301173 0.300987 0.300587
          0.300568 0.300668 0.300912 0.301105 0.301228 0.301202 0.301109 0.300946 0.301023 0.301088 0.301149 0.301198
          0.301233 0.301224 0.301195 0.301149 0.30118 0.301204 0.301218 0.301227 0.301234 0.301232 0.301224 0.301213
          0.301222 0.301229 0.301232 0.301234 0.30112 0.301084 0.30093 0.30049 0.29991 0.300501 0.300918 0.301067
          0.301103 0.300993 0.300486 0.298818 0.295804 0.298812 0.300391 0.300913 0.301075 0.300831 0.29959 0.294257
          0.27513 0.293637 0.29898 0.300506 0.301082 0.300893 0.30008 0.297713 0.294357 0.293551 0.297789 0.300095
          0.30108 0.300885 0.300072 0.297967 0.298799 0.299205 0.29993 0.300671 0.3011 0.300991 0.300575 0.299726
          0.300332 0.300652 0.300835 0.301004 0.301119 0.301082 0.300954 0.300739 0.300915 0.301025 0.301071 0.301104
          0.301126 0.301116 0.301084 0.301035 0.301077 0.301107 0.301118 0.301125 0.301008 0.300947 0.300692 0.300003
          0.299228 0.300075 0.300682 0.300917 0.300976 0.300782 0.2999 0.29705 0.293081 0.297605 0.299817 0.30065
          0.300918 0.300455 0.298021 0.285813 0.262691 0.289658 0.296896 0.299819 0.300918 0.300493 0.298613 0.292878
          0.289691 0.291669 0.288307 0.298387 0.300897 0.300357 0.297638 0.284963 0.295527 0.297719 0.2978 0.299983
          0.300943 0.300622 0.299222 0.29514 0.298808 0.300049 0.300362 0.300761 0.300995 0.300888 0.300487 0.299688
          0.300417 0.300788 0.3009 0.300972 0.301015 0.300987 0.300889 0.300731 0.300878 0.300971 0.301001 0.301014
          0.300897 0.300825 0.300555 0.299873 0.298991 0.299683 0.300466 0.300778 0.300854 0.300628 0.29972 0.297148
          0.293087 0.297275 0.299704 0.30055 0.300775 0.30023 0.297772 0.288388 0.26526 0.289281 0.297409 0.299907
          0.300765 0.300162 0.297383 0.286519 0.281139 0.276161 0.293863 0.299159 0.300745 0.300013 0.296365 0.280153
          0.292657 0.295394 0.29859 0.300166 0.300796 0.300272 0.297614 0.285034 0.2969 0.299401 0.30032 0.300711
          0.300873 0.300698 0.299977 0.298205 0.299861 0.300555 0.300791 0.300875 0.300905 0.300859 0.300692 0.300393
          0.300674 0.300836 0.300892 0.30091 0.300775 0.300665 0.300315 0.299602 0.29836 0.298166 0.299859 0.300519
          0.300697 0.300341 0.299154 0.296854 0.292429 0.296341 0.299334 0.300326 0.30056 0.299686 0.296279 0.289011
          0.263062 0.288554 0.297652 0.299832 0.300625 0.299964 0.29731 0.289444 0.270477 0.288826 0.297479 0.299853
          0.300656 0.300011 0.296817 0.281598 0.291355 0.296853 0.2995 0.300406 0.300728 0.300397 0.298999 0.295313
          0.298055 0.299714 0.300449 0.300699 0.300784 0.30068 0.300293 0.299545 0.300143 0.300561 0.300734 0.300789
          0.300805 0.300778 0.300686 0.300537 0.300662 0.300759 0.300797 0.300808 0.30064 0.300448 0.299877 0.298975
          0.296754 0.290966 0.298179 0.299979 0.300491 0.299802 0.297444 0.295108 0.291323 0.292817 0.298012 0.299628
          0.300211 0.298167 0.285963 0.278172 0.262573 0.28156 0.296224 0.298629 0.300453 0.299603 0.296464 0.291107
          0.275038 0.292263 0.298227 0.299717 0.300597 0.30022 0.298815 0.295595 0.294828 0.298141 0.299868 0.300396
          0.300667 0.300525 0.300016 0.299021 0.299293 0.300072 0.300497 0.300635 0.300696 0.300657 0.300521 0.300291
          0.300404 0.300577 0.300666 0.300694 0.300705 0.300695 0.300663 0.300615 0.300645 0.300682 0.3007 0.300706
          0.300547 0.300395 0.299933 0.298926 0.295956 0.286578 0.296945 0.299428 0.300437 0.299969 0.298539 0.29617
          0.290776 0.284239 0.295652 0.298207 0.300257 0.299158 0.295199 0.288846 0.267554 0.286557 0.293817 0.293551
          0.300402 0.299791 0.297738 0.2937 0.290054 0.295164 0.298006 0.298781 0.300529 0.300301 0.299555 0.298177
          0.297764 0.299068 0.299904 0.300191 0.300582 0.300517 0.300306 0.299946 0.299952 0.30026 0.300456 0.300526
          0.300599 0.300584 0.300536 0.300461 0.300478 0.30054 0.300578 0.300591 0.300603 0.300599 0.300589 0.300575
          0.30058 0.300593 0.3006 0.300602 0.30044 0.30028 0.299797 0.298871 0.29704 0.294373 0.297485 0.299354
          0.300322 0.299802 0.298061 0.29512 0.290433 0.282795 0.29275 0.297794 0.30012 0.298774 0.292145 0.280957
          0.268249 0.270598 0.280477 0.295246 0.300261 0.299456 0.296097 0.283978 0.290282 0.293419 0.296151 0.298716
          0.300416 0.30015 0.299204 0.297197 0.297983 0.298913 0.299593 0.300078 0.300479 0.300416 0.30021 0.29986
          0.299986 0.300195 0.300337 0.300422 0.300495 0.300484 0.300447 0.300391 0.300413 0.300451 0.300475 0.300488
          0.300499 0.300497 0.300491 0.300482 0.300486 0.300492 0.300496 0.300498 0.300358 0.300245 0.299851 0.298884
          0.297224 0.29589 0.297274 0.299261 0.300286 0.299939 0.298636 0.295087 0.288771 0.282884 0.288384 0.297627
          0.300171 0.299381 0.295865 0.281562 0.256056 0.282277 0.29289 0.297944 0.300249 0.299749 0.297735 0.291559
          0.289951 0.29503 0.297959 0.299463 0.300343 0.300173 0.299566 0.298272 0.298161 0.299135 0.299814 0.30016
          0.300382 0.300343 0.300209 0.29997 0.299976 0.300156 0.300287 0.30035 0.300393 0.300386 0.300363 0.300325
          0.300329 0.300358 0.300379 0.300388 0.300395 0.300394 0.30039 0.300384 0.300385 0.30039 0.300393 0.300394
          0.300273 0.300207 0.29994 0.29918 0.29792 0.298204 0.299057 0.299807 0.300239 0.300047 0.299241 0.296725
          0.291578 0.294016 0.297091 0.299247 0.300186 0.299785 0.297983 0.291239 0.267824 0.286557 0.296661 0.299244
          0.300213 0.299932 0.298796 0.295717 0.292332 0.296201 0.298904 0.299855 0.300261 0.300157 0.299776 0.298948
          0.298518 0.299319 0.299936 0.300175 0.300284 0.300258 0.300169 0.3 0.299956 0.300107 0.300223 0.300269
          0.30029 0.300285 0.300269 0.300242 0.300239 0.300263 0.300281 0.300288 0.300291 0.30029 0.300288 0.300284
          0.300284 0.300287 0.30029 0.300291 0.300174 0.300117 0.299858 0.299029 0.297533 0.298803 0.299655 0.30001
          0.300148 0.299979 0.299184 0.296306 0.28806 0.295753 0.298801 0.299789 0.300099 0.299724 0.297911 0.290521
          0.261185 0.289239 0.297837 0.299641 0.300087 0.299683 0.297902 0.292594 0.290798 0.296481 0.29918 0.299935
          0.300143 0.299976 0.299335 0.297941 0.298049 0.299248 0.299912 0.300116 0.300175 0.300132 0.29998 0.299702
          0.299769 0.300001 0.300132 0.300173 0.300185 0.300177 0.30015 0.300104 0.30012 0.300158 0.300179 0.300185
          0.300187 0.300186 0.300181 0.300175 0.300177 0.300183 0.300186 0.300187 0.30007 0.300013 0.299762 0.299039
          0.298055 0.299114 0.299783 0.300002 0.300038 0.299846 0.298986 0.296299 0.291781 0.296928 0.299237 0.299877
          0.29996 0.29943 0.296897 0.287344 0.264703 0.29204 0.29839 0.299727 0.299889 0.299012 0.294215 0.268775
          0.288058 0.296505 0.299235 0.299898 0.299995 0.299641 0.298148 0.294242 0.29704 0.299053 0.299827 0.300027
          0.30006 0.299971 0.299644 0.299024 0.299461 0.299863 0.300028 0.300072 0.30008 0.300063 0.300006 0.299915
          0.29998 0.300047 0.300075 0.300082 0.300084 0.300081 0.300072 0.300059 0.300068 0.300079 0.300083 0.300084
        </DataArray>
        <DataArray type="Float32" Name="process rank" NumberOfComponents="1" format="ascii">
          0 0 0 0 0 0 0 0 0 0 0 0
          0 0 0 0 0 0 0 0 0 0 0 0
          0 0 0 0 0 0 0 0 0 0 0 0
          0 0 0 0 0 0 0 0 0 0 0 0
          0 0 0 0 0 0 0 0 0 0 0 0
          0 0 0 0 0 0 0 0 0 0 0 0
          0 0 0 0 0 0 0 0 0 0 0 0
          0 0 0 0 0 0 0 0 0 0 0 0
          0 0 0 0 0 0 0 0 0 0 0 0
          0 0 0 0 0 0 0 0 0 0 0 0
          0 0 0 0 0 0 0 0 0 0 0 0
          0 0 0 0 0 0 0 0 0 0 0 0
          0 0 0 0 0 0 0 0 0 0 0 0
          0 0 0 0 0 0 0 0 0 0 0 0
          0 0 0 0 0 0 0 0 0 0 0 0
          0 0 0 0 0 0 0 0 0 0 0 0
          0 0 0 0 0 0 0 0 0 0 0 0
          0 0 0 0 0 0 0 0 0 0 0 0
          0 0 0 0 0 0 0 0 0 0 0 0
          0 0 0 0 0 0 0 0 0 0 0 0
          0 0 0 0 0 0 0 0 0 0 0 0
          0 0 0 0 0 0 0 0 0 0 0 0
          0 0 0 0 0 0 0 0 0 0 0 0
          0 0 0 0 0 0 0 0 0 0 0 0
          0 0 0 0 0 0 0 0 0 0 0 0
          0 0 0 0 0 0 0 0 0 0 0 0
          0 0 0 0 0 0 0 0 0 0 0 0
          0 0 0 0 0 0 0 0 0 0 0 0
          0 0 0 0 0 0 0 0 0 0 0 0
          0 0 0 0 0 0 0 0 0 0 0 0
          0 0 0 0 0 0 0 0 0 0 0 0
          0 0 0 0 0 0 0 0 0 0 0 0
          0 0 0 0 0 0 0 0 0 0 0 0
          0 0 0 0 0 0 0 0 0 0 0 0
          0 0 0 0 0 0 0 0 0 0 0 0
          0 0 0 0 0 0 0 0 0 0 0 0
          0 0 0 0 0 0 0 0 0 0 0 0
          0 0 0 0 0 0 0 0 0 0 0 0
          0 0 0 0 0 0 0 0 0 0 0 0
          0 0 0 0 0 0 0 0 0 0 0 0
          0 0 0 0 0 0 0 0 0 0 0 0
          0 0 0 0 0 0 0 0 0 0 0 0
          0 0 0 0 0 0 0 0 0 0 0 0
          0 0 0 0 0 0 0 0 0 0 0 0
          0 0 0 0 0 0 0 0 0 0 0 0
          0 0 0 0 0 0 0 0 0 0 0 0
          0 0 0 0 0 0 0 0 0 0 0 0
          0 0 0 0 0 0 0 0 0 0 0 0
          0 0 0 0 0 0 0 0 0 0 0 0
          0 0 0 0 0 0 0 0 0 0 0 0
          0 0 0 0 0 0 0 0 0 0 0 0
          0 0 0 0 0 0 0 0 0 0 0 0
          0 0 0 0 0 0 0 0 0 0 0 0
          0 0 0 0 0 0 0 0 0 0 0 0
          0 0 0 0 0 0 0 0 0 0 0 0
          0 0 0 0 0 0 0 0 0 0 0 0
          0 0 0 0 0 0 0 0 0 0 0 0
          0 0 0 0 0 0 0 0 0 0 0 0
          0 0 0 0 0 0 0 0 0 0 0 0
          0 0 0 0 0 0 0 0 0 0 0 0
          0 0 0 0 0 0 0 0 0 0 0 0
          0 0 0 0 0 0 0 0 0 0 0 0
          0 0 0 0 0 0 0 0 0 0 0 0
          0 0 0 0 0 0 0 0 0 0 0 0
          0 0 0 0 0 0 0 0 0 0 0 0
          0 0 0 0 0 0 0 0 0 0 0 0
          0 0 0 0 0 0 0 0 0 0 0 0
          0 0 0 0 0 0 0 0 0 0 0 0
          0 0 0 0 0 0 0 0 0 0 0 0
          0 0 0 0 0 0 0 0 0 0 0 0
          0 0 0 0 0 0 0 0 0 0 0 0
          0 0 0 0 0 0 0 0 0 0 0 0
          0 0 0 0 0 0 0 0 0 0 0 0
          0 0 0 0 0 0 0 0 0 0 0 0
          0 0 0 0 0 0 0 0 0 0 0 0
          0 0 0 0 0 0 0 0 0 0 0 0
          0 0 0 0 0 0 0 0 0 0 0 0
          0 0 0 0 0 0 0 0 0 0 0 0
          0 0 0 0 0 0 0 0 0 0 0 0
          0 0 0 0 0 0 0 0 0 0 0 0
        </DataArray>
      </CellData>
      <Points>
        <DataArray type="Float32" Name="Coordinates" NumberOfComponents="3" format="ascii">
          -0.04 -0.04 -0.15 -0.03 -0.04 -0.15 -0.04 -0.03 -0.15 -0.03 -0.03 -0.15
          -0.04 -0.04 -0.14 -0.03 -0.04 -0.14 -0.04 -0.03 -0.14 -0.03 -0.03 -0.14
          -0.02 -0.04 -0.15 -0.02 -0.03 -0.15 -0.02 -0.04 -0.14 -0.02 -0.03 -0.14
          -0.01 -0.04 -0.15 -0.01 -0.03 -0.15 -0.01 -0.04 -0.14 -0.01 -0.03 -0.14
          0 -0.04 -0.15 0 -0.03 -0.15 0 -0.04 -0.14 0 -0.03 -0.14
          0.01 -0.04 -0.15 0.01 -0.03 -0.15 0.01 -0.04 -0.14 0.01 -0.03 -0.14
          0.02 -0.04 -0.15 0.02 -0.03 -0.15 0.02 -0.04 -0.14 0.02 -0.03 -0.14
          0.03 -0.04 -0.15 0.03 -0.03 -0.15 0.03 -0.04 -0.14 0.03 -0.03 -0.14
          0.04 -0.04 -0.15 0.04 -0.03 -0.15 0.04 -0.04 -0.14 0.04 -0.03 -0.14
          -0.04 -0.02 -0.15 -0.03 -0.02 -0.15 -0.04 -0.02 -0.14 -0.03 -0.02 -0.14
          -0.02 -0.02 -0.15 -0.02 -0.02 -0.14 -0.01 -0.02 -0.15 -0.01 -0.02 -0.14
          0 -0.02 -0.15 0 -0.02 -0.14 0.01 -0.02 -0.15 0.01 -0.02 -0.14
          0.02 -0.02 -0.15 0.02 -0.02 -0.14 0.03 -0.02 -0.15 0.03 -0.02 -0.14
          0.04 -0.02 -0.15 0.04 -0.02 -0.14 -0.04 -0.01 -0.15 -0.03 -0.01 -0.15
          -0.04 -0.01 -0.14 -0.03 -0.01 -0.14 -0.02 -0.01 -0.15 -0.02 -0.01 -0.14
          -0.01 -0.01 -0.15 -0.01 -0.01 -0.14 0 -0.01 -0.15 0 -0.01 -0.14
          0.01 -0.01 -0.15 0.01 -0.01 -0.14 0.02 -0.01 -0.15 0.02 -0.01 -0.14
          0.03 -0.01 -0.15 0.03 -0.01 -0.14 0.04 -0.01 -0.15 0.04 -0.01 -0.14
          -0.04 0 -0.15 -0.03 0 -0.15 -0.04 0 -0.14 -0.03 0 -0.14
          -0.02 0 -0.15 -0.02 0 -0.14 -0.01 0 -0.15 -0.01 0 -0.14
          0 0 -0.15 0 0 -0.14 0.01 0 -0.15 0.01 0 -0.14
          0.02 0 -0.15 0.02 0 -0.14 0.03 0 -0.15 0.03 0 -0.14
          0.04 0 -0.15 0.04 0 -0.14 -0.04 0.01 -0.15 -0.03 0.01 -0.15
          -0.04 0.01 -0.14 -0.03 0.01 -0.14 -0.02 0.01 -0.15 -0.02 0.01 -0.14
          -0.01 0.01 -0.15 -0.01 0.01 -0.14 0 0.01 -0.15 0 0.01 -0.14
          0.01 0.01 -0.15 0.01 0.01 -0.14 0.02 0.01 -0.15 0.02 0.01 -0.14
          0.03 0.01 -0.15 0.03 0.01 -0.14 0.04 0.01 -0.15 0.04 0.01 -0.14
          -0.04 0.02 -0.15 -0.03 0.02 -0.15 -0.04 0.02 -0.14 -0.03 0.02 -0.14
          -0.02 0.02 -0.15 -0.02 0.02 -0.14 -0.01 0.02 -0.15 -0.01 0.02 -0.14
          0 0.02 -0.15 0 0.02 -0.14 0.01 0.02 -0.15 0.01 0.02 -0.14
          0.02 0.02 -0.15 0.02 0.02 -0.14 0.03 0.02 -0.15 0.03 0.02 -0.14
          0.04 0.02 -0.15 0.04 0.02 -0.14 -0.04 0.03 -0.15 -0.03 0.03 -0.15
          -0.04 0.03 -0.14 -0.03 0.03 -0.14 -0.02 0.03 -0.15 -0.02 0.03 -0.14
          -0.01 0.03 -0.15 -0.01 0.03 -0.14 0 0.03 -0.15 0 0.03 -0.14
          0.01 0.03 -0.15 0.01 0.03 -0.14 0.02 0.03 -0.15 0.02 0.03 -0.14
          0.03 0.03 -0.15 0.03 0.03 -0.14 0.04 0.03 -0.15 0.04 0.03 -0.14
          -0.04 0.04 -0.15 -0.03 0.04 -0.15 -0.04 0.04 -0.14 -0.03 0.04 -0.14
          -0.02 0.04 -0.15 -0.02 0.04 -0.14 -0.01 0.04 -0.15 -0.01 0.04 -0.14
          0 0.04 -0.15 0 0.04 -0.14 0.01 0.04 -0.15 0.01 0.04 -0.14
          0.02 0.04 -0.15 0.02 0.04 -0.14 0.03 0.04 -0.15 0.03 0.04 -0.14
          0.04 0.04 -0.15 0.04 0.04 -0.14 -0.04 -0.04 -0.13 -0.03 -0.04 -0.13
          -0.04 -0.03 -0.13 -0.03 -0.03 -0.13 -0.02 -0.04 -0.13 -0.02 -0.03 -0.13
          -0.01 -0.04 -0.13 -0.01 -0.03 -0.13 0 -0.04 -0.13 0 -0.03 -0.13
          0.01 -0.04 -0.13 0.01 -0.03 -0.13 0.02 -0.04 -0.13 0.02 -0.03 -0.13
          0.03 -0.04 -0.13 0.03 -0.03 -0.13 0.04 -0.04 -0.13 0.04 -0.03 -0.13
          -0.04 -0.02 -0.13 -0.03 -0.02 -0.13 -0.02 -0.02 -0.13 -0.01 -0.02 -0.13
          0 -0.02 -0.13 0.01 -0.02 -0.13 0.02 -0.02 -0.13 0.03 -0.02 -0.13
          0.04 -0.02 -0.13 -0.04 -0.01 -0.13 -0.03 -0.01 -0.13 -0.02 -0.01 -0.13
          -0.01 -0.01 -0.13 0 -0.01 -0.13 0.01 -0.01 -0.13 0.02 -0.01 -0.13
          0.03 -0.01 -0.13 0.04 -0.01 -0.13 -0.04 0 -0.13 -0.03 0 -0.13
          -0.02 0 -0.13 -0.01 0 -0.13 0 0 -0.13 0.01 0 -0.13
          0.02 0 -0.13 0.03 0 -0.13 0.04 0 -0.13 -0.04 0.01 -0.13
          -0.03 0.01 -0.13 -0.02 0.01 -0.13 -0.01 0.01 -0.13 0 0.01 -0.13
          0.01 0.01 -0.13 0.02 0.01 -0.13 0.03 0.01 -0.13 0.04 0.01 -0.13
          -0.04 0.02 -0.13 -0.03 0.02 -0.13 -0.02 0.02 -0.13 -0.01 0.02 -0.13
          0 0.02 -0.13 0.01 0.02 -0.13 0.02 0.02 -0.13 0.03 0.02 -0.13
          0.04 0.02 -0.13 -0.04 0.03 -0.13 -0.03 0.03 -0.13 -0.02 0.03 -0.13
          -0.01 0.03 -0.13 0 0.03 -0.13 0.01 0.03 -0.13 0.02 0.03 -0.13
          0.03 0.03 -0.13 0.04 0.03 -0.13 -0.04 0.04 -0.13 -0.03 0.04 -0.13
          -0.02 0.04 -0.13 -0.01 0.04 -0.13 0 0.04 -0.13 0.01 0.04 -0.13
          0.02 0.04 -0.13 0.03 0.04 -0.13 0.04 0.04 -0.13 -0.04 -0.04 -0.12
          -0.03 -0.04 -0.12 -0.04 -0.03 -0.12 -0.03 -0.03 -0.12 -0.02 -0.04 -0.12
          -0.02 -0.03 -0.12 -0.01 -0.04 -0.12 -0.01 -0.03 -0.12 0 -0.04 -0.12
          0 -0.03 -0.12 0.01 -0.04 -0.12 0.01 -0.03 -0.12 0.02 -0.04 -0.12
          0.02 -0.03 -0.12 0.03 -0.04 -0.12 0.03 -0.03 -0.12 0.04 -0.04 -0.12
          0.04 -0.03 -0.12 -0.04 -0.02 -0.12 -0.03 -0.02 -0.12 -0.02 -0.02 -0.12
          -0.01 -0.02 -0.12 0 -0.02 -0.12 0.01 -0.02 -0.12 0.02 -0.02 -0.12
          0.03 -0.02 -0.12 0.04 -0.02 -0.12 -0.04 -0.01 -0.12 -0.03 -0.01 -0.12
          -0.02 -0.01 -0.12 -0.01 -0.01 -0.12 0 -0.01 -0.12 0.01 -0.01 -0.12
          0.02 -0.01 -0.12 0.03 -0.01 -0.12 0.04 -0.01 -0.12 -0.04 0 -0.12
          -0.03 0 -0.12 -0.02 0 -0.12 -0.01 0 -0.12 0 0 -0.12
          0.01 0 -0.12 0.02 0 -0.12 0.03 0 -0.12 0.04 0 -0.12
          -0.04 0.01 -0.12 -0.03 0.01 -0.12 -0.02 0.01 -0.12 -0.01 0.01 -0.12
          0 0.01 -0.12 0.01 0.01 -0.12 0.02 0.01 -0.12 0.03 0.01 -0.12
          0.04 0.01 -0.12 -0.04 0.02 -0.12 -0.03 0.02 -0.12 -0.02 0.02 -0.12
          -0.01 0.02 -0.12 0 0.02 -0.12 0.01 0.02 -0.12 0.02 0.02 -0.12
          0.03 0.02 -0.12 0.04 0.02 -0.12 -0.04 0.03 -0.12 -0.03 0.03 -0.12
          -0.02 0.03 -0.12 -0.01 0.03 -0.12 0 0.03 -0.12 0.01 0.03 -0.12
          0.02 0.03 -0.12 0.03 0.03 -0.12 0.04 0.03 -0.12 -0.04 0.04 -0.12
          -0.03 0.04 -0.12 -0.02 0.04 -0.12 -0.01 0.04 -0.12 0 0.04 -0.12
          0.01 0.04 -0.12 0.02 0.04 -0.12 0.03 0.04 -0.12 0.04 0.04 -0.12
          -0.04 -0.04 -0.11 -0.03 -0.04 -0.11 -0.04 -0.03 -0.11 -0.03 -0.03 -0.11
          -0.02 -0.04 -0.11 -0.02 -0.03 -0.11 -0.01 -0.04 -0.11 -0.01 -0.03 -0.11
          0 -0.04 -0.11 0 -0.03 -0.11 0.01 -0.04 -0.11 0.01 -0.03 -0.11
          0.02 -0.04 -0.11 0.02 -0.03 -0.11 0.03 -0.04 -0.11 0.03 -0.03 -0.11
          0.04 -0.04 -0.11 0.04 -0.03 -0.11 -0.04 -0.02 -0.11 -0.03 -0.02 -0.11
          -0.02 -0.02 -0.11 -0.01 -0.02 -0.11 0 -0.02 -0.11 0.01 -0.02 -0.11
          0.02 -0.02 -0.11 0.03 -0.02 -0.11 0.04 -0.02 -0.11 -0.04 -0.01 -0.11
          -0.03 -0.01 -0.11 -0.02 -0.01 -0.11 -0.01 -0.01 -0.11 0 -0.01 -0.11
          0.01 -0.01 -0.11 0.02 -0.01 -0.11 0.03 -0.01 -0.11 0.04 -0.01 -0.11
          -0.04 0 -0.11 -0.03 0 -0.11 -0.02 0 -0.11 -0.01 0 -0.11
          0 0 -0.11 0.01 0 -0.11 0.02 0 -0.11 0.03 0 -0.11
          0.04 0 -0.11 -0.04 0.01 -0.11 -0.03 0.01 -0.11 -0.02 0.01 -0.11
          -0.01 0.01 -0.11 0 0.01 -0.11 0.01 0.01 -0.11 0.02 0.01 -0.11
          0.03 0.01 -0.11 0.04 0.01 -0.11 -0.04 0.02 -0.11 -0.03 0.02 -0.11
          -0.02 0.02 -0.11 -0.01 0.02 -0.11 0 0.02 -0.11 0.01 0.02 -0.11
          0.02 0.02 -0.11 0.03 0.02 -0.11 0.04 0.02 -0.11 -0.04 0.03 -0.11
          -0.03 0.03 -0.11 -0.02 0.03 -0.11 -0.01 0.03 -0.11 0 0.03 -0.11
          0.01 0.03 -0.11 0.02 0.03 -0.11 0.03 0.03 -0.11 0.04 0.03 -0.11
          -0.04 0.04 -0.11 -0.03 0.04 -0.11 -0.02 0.04 -0.11 -0.01 0.04 -0.11
          0 0.04 -0.11 0.01 0.04 -0.11 0.02 0.04 -0.11 0.03 0.04 -0.11
          0.04 0.04 -0.11 -0.04 -0.04 -0.1 -0.03 -0.04 -0.1 -0.04 -0.03 -0.1
          -0.03 -0.03 -0.1 -0.02 -0.04 -0.1 -0.02 -0.03 -0.1 -0.01 -0.04 -0.1
          -0.01 -0.03 -0.1 0 -0.04 -0.1 0 -0.03 -0.1 0.01 -0.04 -0.1
          0.01 -0.03 -0.1 0.02 -0.04 -0.1 0.02 -0.03 -0.1 0.03 -0.04 -0.1
          0.03 -0.03 -0.1 0.04 -0.04 -0.1 0.04 -0.03 -0.1 -0.04 -0.02 -0.1
          -0.03 -0.02 -0.1 -0.02 -0.02 -0.1 -0.01 -0.02 -0.1 0 -0.02 -0.1
          0.01 -0.02 -0.1 0.02 -0.02 -0.1 0.03 -0.02 -0.1 0.04 -0.02 -0.1
          -0.04 -0.01 -0.1 -0.03 -0.01 -0.1 -0.02 -0.01 -0.1 -0.01 -0.01 -0.1
          0 -0.01 -0.1 0.01 -0.01 -0.1 0.02 -0.01 -0.1 0.03 -0.01 -0.1
          0.04 -0.01 -0.1 -0.04 0 -0.1 -0.03 0 -0.1 -0.02 0 -0.1
          -0.01 0 -0.1 0 0 -0.1 0.01 0 -0.1 0.02 0 -0.1
          0.03 0 -0.1 0.04 0 -0.1 -0.04 0.01 -0.1 -0.03 0.01 -0.1
          -0.02 0.01 -0.1 -0.01 0.01 -0.1 0 0.01 -0.1 0.01 0.01 -0.1
          0.02 0.01 -0.1 0.03 0.01 -0.1 0.04 0.01 -0.1 -0.04 0.02 -0.1
          -0.03 0.02 -0.1 -0.02 0.02 -0.1 -0.01 0.02 -0.1 0 0.02 -0.1
          0.01 0.02 -0.1 0.02 0.02 -0.1 0.03 0.02 -0.1 0.04 0.02 -0.1
          -0.04 0.03 -0.1 -0.03 0.03 -0.1 -0.02 0.03 -0.1 -0.01 0.03 -0.1
          0 0.03 -0.1 0.01 0.03 -0.1 0.02 0.03 -0.1 0.03 0.03 -0.1
          0.04 0.03 -0.1 -0.04 0.04 -0.1 -0.03 0.04 -0.1 -0.02 0.04 -0.1