<?xml version="1.0"?><VTKFile type="PolyData" version="0.1" byte_order="LittleEndian">
<PolyData>
<Piece NumberOfLines="2045" NumberOfPoints="25095">
<PointData Scalars=" PointData">
<DataArray type="Float32" Name="time" NumberOfComponents="1" format="ascii" >
0 0.364105 0.386762 0.50787 0.527747 0.726473 0.916515 1.10118 1.22862 1.34714 1.43295 1.55307 1.79931 1.81229 1.84301 2.04849 2.27344 2.55085 2.73776 2.79479 2.98827 3.24874 3.50528 3.68333 3.86578 3.9732 4.11891 4.32083 4.55453 4.65242 4.90742 5.02433 5.27329 5.43761 5.70913 5.98805 6.17239 6.24493 6.42293 6.67747 6.79859 6.93302 7.10676 7.35753 7.53579 7.6418 7.77071 7.90617 8.11498 8.31872 8.44339 8.52144 8.57542 8.84029 9.05099 9.35482 9.56195 9.77562 10.0795 10.2069 10.4153 10.6316 10.8862 11.0465 11.3675 11.5825 11.7109 11.847 12.0338 12.0979 12.1683 12.3713 12.4672 12.5771 12.7822 13.0919 13.1052 13.4016 13.5128 13.7506 13.8651 13.9842 14.096 14.2183 14.5044 14.6016 14.8147 14.9916 15.2612 15.6848 15.8778 16.2446 16.3528 16.6621 16.9559 17.2523 17.2736 17.6168 17.694 18.0528 18.2883 18.6747 19.0406 19.4277 19.7179 19.9182 20.0882 20.2986 20.6773 20.8038 21.1595 21.2834 21.6946 21.8858 22.2438 22.7152 22.9411 23.0064 23.4417 23.8001 24.0065 24.4602 24.6158 24.8692 25.3166 25.5768 25.7137 25.9668 26.4384 26.6448 26.7598 27.1025 27.5279 27.7373 28.0043 28.4342 28.6932 29.1194 29.2922 29.5022 29.6615 29.951 30.275 30.6289 31.0005 31.3466 31.6182 31.6504 32.2212 32.4878 33.0773 33.7455 34.1371 34.4889 34.7915 35.1288 35.8116 36.091 36.2507 36.7215 36.969 37.6325 38.1726 38.7128 39.4001 39.9657 40.699 41.4129 41.981 42.2881 42.9416 42.9978 43.4653 43.7131 44.3066 45.0035 45.5196 45.7544 46.3493 47.1359 47.5779 48.4058 49.0419 49.7091 50.3577 50.7631 51.4675 52.3754 52.6538 53.0915 53.5746 54.2155 55.0284 55.3479 56.0877 56.9218 57.888 58.5399 58.994 59.9517 60.822 61.4906 62.0602 63.4637 64.3039 64.8525 65.8127 67.1422 68.0957 69.4629 70.6198 72.1354 73.5872 73.9059 75.1244 76.2739 78.1342 80.5775 81.2234 83.3529 85.9129 89.8094 94.1653 99.1036 104.804 111.547 119.799 130.439 145.434 154 4.13593 4.35761 4.51038 4.6674 4.8289 4.99515 5.16644 5.34309 5.52543 5.71385 5.90878 6.11066 6.32003 6.53744 6.76356 6.9991 7.24489 7.50185 7.77105 8.05372 8.35127 8.66536 8.99794 9.35131 9.72826 10.1322 10.5672 11.8284 13.4544 15.7462 19.664 90 6.53744 6.92163 7.3575 7.86113 8.45754 9.18883 10.1344 11.4743 13.7972 30 6.76356 7.15063 7.59755 8.12626 8.77356 9.6085 10.7864 12.805 21 6.9991 7.38012 7.80424 8.28246 8.83064 9.4728 10.248 11.2261 12.5526 14.6225 19.6194 30 7.24489 7.62745 8.05725 8.5476 9.11841 9.80136 10.6516 11.7785 13.4543 16.8027 30 7.50185 7.88181 8.3021 8.77231 9.3059 9.92268 10.6534 11.5501 12.7108 14.3592 17.2332 30 7.77105 8.15266 8.57893 9.06171 9.61831 10.2755 11.0777 12.1077 13.5485 15.9653 26.2398 30 8.05372 8.43482 8.85923 9.33806 9.88737 10.5315 11.3103 12.2951 13.636 15.7468 21 30 8.35127 8.73407 9.16473 9.65695 10.2313 10.9208 11.7836 12.9369 14.6822 18.3903 30 8.66536 9.04661 9.47157 9.95157 10.503 11.151 11.9366 12.9344 14.3035 16.4967 22.5799 30 8.99794 9.38046 9.81007 10.3 10.8701 11.5517 12.3994 13.5211 15.1833 18.4669 30 9.35131 9.73521 10.17 10.6712 11.2629 11.985 12.912 14.2081 16.3795 25.4418 30 9.72826 10.1107 10.54 11.0294 11.5983 12.2778 13.1215 14.2348 15.8757 19.0614 30 10.1322 10.5148 10.9447 11.4352 12.0065 12.6903 13.542 14.6722 16.3564 19.7457 30 10.5672 10.9494 11.3782 11.8663 12.4329 13.1081 13.9437 15.0404 16.6397 19.6438 30 11.0384 11.4162 11.8286 12.2825 12.7875 13.3564 14.0078 14.7696 15.6872 16.8411 18.3967 20.7937 26.2625 90 11.5526 11.9352 12.365 12.8553 13.426 14.1089 14.9588 16.0852 17.7597 21.1019 30 12.1183 12.5017 12.9343 13.4308 14.0135 14.7184 15.6112 16.8295 18.7574 23.7467 30 12.747 13.127 13.5476 14.0183 14.5528 15.1711 15.9045 16.8059 17.9759 19.6458 22.5963 90 13.4544 13.8376 14.2695 14.7645 15.3442 16.0436 16.9254 18.1198 19.9786 24.4083 30 14.2633 14.6456 15.0747 15.5634 16.1311 16.8084 17.6479 18.7526 20.3718 23.4613 90 15.2075 15.5881 16.0108 16.486 17.0286 17.661 18.4189 19.3647 20.6236 22.5116 26.395 90 16.3417 16.7211 17.1393 17.6052 18.1311 18.7347 19.4431 20.3005 21.3866 22.8699 25.2205 31.3526 90 17.7622 18.1455 18.5783 19.0751 19.6582 20.3641 21.2587 22.4811 24.421 29.52 90 19.664 20.0442 20.4654 20.9375 21.4745 22.0972 22.8381 23.753 24.9494 26.6818 29.8688 90 22.5513 22.9303 23.3475 23.8112 24.3333 24.9304 25.6279 26.4665 27.5182 28.9294 31.082 35.7975 90 28.7608 29.1451 29.5812 30.0855 30.6832 31.417 32.3677 33.7199 36.0875 90 4.16102 4.54295 4.9704 5.45572 6.01704 6.68268 7.50048 8.56127 10.0735 12.7372 21 4.29516 4.67723 5.10518 5.59155 6.15487 6.82412 7.6486 8.72279 10.267 13.0503 21 4.31719 4.6969 5.1163 5.58467 6.11495 6.72606 7.44713 8.32664 9.45438 11.0281 13.652 23.8957 30 4.53742 4.91753 5.33837 5.8097 6.34533 6.96561 7.7024 8.60986 9.79165 11.4892 14.5418 30 4.74815 5.12899 5.55244 6.02927 6.57489 7.21256 7.97975 8.94287 10.2376 12.2202 16.6297 30 4.95303 5.17568 5.33029 5.49022 5.65587 5.82766 6.00605 6.19158 6.38485 6.58652 6.79736 7.01824 7.25017 7.49432 7.75203 8.02492 8.31487 8.62416 8.95556 9.31248 10.3474 11.6815 13.5619 16.7765 30 7.49432 7.87995 8.32132 8.83727 9.45826 10.2383 11.2879 12.8985 16.5112 30 7.75203 8.13061 8.54595 9.00597 9.52145 10.1076 10.787 11.5949 12.5917 13.8934 15.7731 19.2043 30 8.02492 8.40614 8.83098 9.31073 9.86171 10.5088 11.2929 12.2879 13.6508 15.8255 21.72 30 8.31487 8.69962 9.13763 9.64603 10.2519 11.0016 11.9854 13.4198 16.1121 30 8.62416 9.00717 9.43861 9.93252 10.5101 11.2056 12.0799 13.2579 15.0706 19.1834 30 8.95556 9.33764 9.76562 10.2521 10.8155 11.485 12.3099 13.3849 14.9312 17.7223 30 9.31248 9.69404 10.1201 10.6025 11.1584 11.8142 12.6141 13.6394 15.0696 17.4521 26.6395 30 9.69918 10.0822 10.5138 11.0081 11.5864 12.2833 13.1602 14.3438 16.1721 20.388 30 10.1211 10.5044 10.9371 11.4337 12.0164 12.7216 13.6148 14.834 16.7647 21.7787 30 10.5852 10.9658 11.3882 11.8629 12.4046 13.0354 13.7906 14.7314 15.9799 17.8412 21.592 30 11.1011 11.4863 11.9262 12.4389 13.0533 13.8201 14.8405 16.3705 19.515 30 11.6815 12.0608 12.4788 12.9441 13.4689 14.0707 14.7761 15.6283 16.7047 18.1675 20.4604 26.1133 90 12.3452 12.7273 13.1555 13.6424 14.2067 14.8778 15.7057 16.7867 18.3474 21.1948 30 13.1199 13.5016 13.9282 14.4117 14.9696 15.629 16.4355 17.4737 18.9334 21.413 30 14.0506 14.4361 14.8768 15.3913 16.0095 16.7837 17.8206 19.3955 22.789 30 15.2161 15.5971 16.0214 16.4999 17.0485 17.6915 18.4681 19.4489 20.7812 22.8677 27.9895 90 16.7765 17.1571 17.5794 18.0538 18.5949 19.2248 19.9783 20.9162 22.1586 24.0045 27.6815 90 19.1456 19.5255 19.9456 20.4153 20.9482 21.5636 22.2921 23.1846 24.3374 25.9676 28.7785 90 24.2406 24.6208 25.042 25.514 26.0508 26.6732 27.4137 28.3277 29.5225 31.251 34.4223 90 5.09448 5.47723 5.9077 6.3995 6.97307 7.66112 8.52105 9.66837 11.3976 15.0183 21 5.22609 5.60547 6.02367 6.48954 7.01537 7.6189 8.32715 9.18425 10.2699 11.752 14.0996 20.2045 30 5.32139 5.54308 5.69585 5.85286 6.01436 6.18062 6.35191 6.52855 6.7109 6.89932 7.09424 7.29613 7.50549 7.72291 7.94902 8.18457 8.43035 8.68731 8.95651 9.23918 9.53673 9.85082 10.1834 10.5368 10.9137 11.3176 11.7526 13.0139 14.6399 16.9317 20.8494 90 7.72291 8.10522 8.53406 9.02237 9.58931 10.2652 11.102 12.2012 13.8069 16.8376 30 7.94902 8.33009 8.75435 9.23288 9.78163 10.4248 11.2018 12.1833 13.517 15.6074 20.76 30 8.18457 8.56613 8.99222 9.47464 10.0306 10.6865 11.4865 12.5122 13.9432 16.3282 25.5838 30 8.43035 8.81013 9.22977 9.69862 10.2298 10.8424 11.566 12.45 13.5864 15.1793 17.8654 30 8.68731 9.07188 9.50917 10.016 10.6186 11.3621 12.3329 13.7344 16.2907 30 8.95651 9.33699 9.75911 10.2332 10.7737 11.4025 12.154 13.0882 14.3233 16.1506 19.7414 30 9.23918 9.62292 10.0571 10.557 11.1462 11.8635 12.7807 14.0543 16.1522 23.3235 30 9.53673 9.91669 10.3369 10.8071 11.3405 11.957 12.6874 13.5832 14.7425 16.3874 19.2492 30 9.85082 10.2326 10.6596 11.1438 11.7032 12.3653 13.1765 14.2243 15.706 18.2609 30 10.1834 10.5637 10.985 11.4574 11.9949 12.6185 13.361 14.2787 15.4808 17.2269 20.4684 30 10.5368 10.9184 11.3446 11.8273 12.3839 13.0408 13.8427 14.8721 16.3114 18.7234 28.8243 30 10.9137 11.2971 11.7297 12.2262 12.8088 13.5138 14.4064 15.6245 17.5519 22.5361 30 11.3176 11.6974 12.117 12.5857 13.1167 13.729 14.452 15.335 16.4694 18.058 20.7299 32.6183 90 11.7526 12.1332 12.5556 13.0302 13.5718 14.2024 14.9572 15.8974 17.1446 19.0026 22.7374 30 12.2239 12.6065 13.0363 13.5267 14.0976 14.7808 15.6314 16.7592 18.4372 21.7961 30 12.7381 13.1205 13.5499 14.0393 14.6083 15.2879 16.1317 17.2455 18.8876 22.0783 30 13.3038 13.685 14.11 14.5899 15.1412 15.789 16.5742 17.5713 18.9387 21.1269 27.1589 90 13.9325 14.3192 14.7648 15.2903 15.9311 16.7522 17.8964 19.7984 26.9443 30 14.6399 15.0211 15.4458 15.9254 16.476 17.1225 17.9054 18.8981 20.2561 22.4165 28.1716 90 15.4487 15.8293 16.2518 16.7265 17.2683 17.8992 18.6546 19.5959 20.8454 22.7091 26.4718 90 16.3929 16.7747 17.2013 17.6849 18.2429 18.9027 19.7098 20.7492 22.2117 24.7005 40.0907 90 17.5272 17.9097 18.3393 18.8294 19.3995 20.0813 20.9293 22.0516 23.7156 27.0074 90 18.9476 19.3277 19.7483 20.2192 20.754 21.3729 22.1072 23.0103 24.1835 25.8609 28.8388 90 20.8494 21.2306 21.655 22.134 22.6836 23.3283 24.108 25.0945 26.4391 28.5607 33.9673 90 23.7367 24.1156 24.5319 24.9938 25.5127 26.1045 26.7932 27.6168 28.6414 29.998 32.0104 36.0002 90 29.9463 30.3312 30.7701 31.2804 31.8899 32.647 33.6465 35.1212 37.9928 90 5.45486 5.83949 6.27705 6.78444 7.38827 8.13402 9.10957 10.523 13.1276 21 5.7286 6.10694 6.52144 6.97974 7.49221 8.07339 8.7446 9.53895 10.512 11.7682 13.5432 16.5974 30 5.74304 6.12391 6.54748 7.02455 7.57061 8.20905 8.9776 9.94327 11.2434 13.2405 17.7398 30 5.7772 6.16055 6.59323 7.08985 7.67265 8.37794 9.27129 10.491 12.4229 17.4486 30 6.00582 6.38994 6.82553 7.32857 7.92381 8.65283 9.59375 10.9226 13.2063 21 6.25626 6.63954 7.07197 7.56804 8.14977 8.85305 9.74247 10.9534 12.8599 17.6629 30 6.56535 6.78662 6.93863 7.09443 7.25423 7.41824 7.58668 7.7598 7.93786 8.12117 8.31003 8.50479 8.70584 8.91358 9.1285 9.35109 9.58193 9.82164 10.071 10.3307 10.6016 10.885 11.1818 11.4934 11.8215 12.1678 12.5345 12.9241 13.3397 13.7851 14 14.2647 15.6553 17.4481 19.9749 24.2945 90 8.91358 9.29532 9.72206 10.2058 10.7643 11.4248 12.2331 13.2751 14.7435 17.2523 30 9.1285 9.50898 9.93115 10.4053 10.946 11.575 12.327 13.2621 14.499 16.3308 19.9422 30 9.35109 9.73276 10.1593 10.6425 11.2001 11.8589 12.6641 13.7 15.1542 17.6155 30 9.58193 9.96181 10.3818 10.8514 11.3839 11.9988 12.7264 13.6174 14.7671 16.3902 19.1769 30 9.82164 10.205 10.6375 11.1339 11.7162 12.4206 13.3121 14.5278 16.4479 21.3682 30 10.071 10.4538 10.8844 11.3766 11.951 12.6405 13.5032 14.6564 16.4014 20.1079 30 10.3307 10.7123 11.1386 11.6214 12.1781 12.8354 13.6379 14.6684 16.1105 18.5315 28.9652 30 10.6016 10.9804 11.3965 11.8579 12.3759 12.9663 13.6526 14.4721 15.4895 16.8315 18.8081 22.6369 90 10.885 11.2663 11.6916 12.1723 12.725 13.3752 14.1648 15.1703 16.5564 18.8004 25.4718 30 11.1818 11.5666 12.0048 12.5138 13.1207 13.8725 14.8609 16.3068 19.0489 30 11.4934 11.8755 12.3034 12.7896 13.3526 14.0214 14.8449 15.9172 17.4569 20.2229 30 11.8215 12.2062 12.6442 13.1524 13.758 14.5071 15.4898 16.9211 19.6005 30 12.1678 12.5466 12.9629 13.4248 13.9437 14.5354 15.224 16.0474 17.0716 18.4274 20.438 24.419 90 12.5345 12.9192 13.3572 13.8656 14.4713 15.2209 16.2044 17.6379 20.3264 30 12.9241 13.3092 13.7483 14.2592 14.8701 15.6298 16.6348 18.1241 21.0645 30 13.3397 13.7209 14.1454 14.6245 15.1743 15.8193 16.5996 17.5874 18.9346 21.0638 26.5354 90 13.7851 14.1727 14.6217 15.1554 15.8132 16.671 17.906 20.1419 30 14.2647 14.6484 15.0827 15.5828 16.1723 16.8903 17.8089 19.0857 21.1938 28.5677 30 14.7843 15.1648 15.5872 16.0616 16.603 17.2332 17.9872 18.9259 20.1703 22.0209 25.7207 90 15.3512 15.7336 16.1628 16.6517 17.2199 17.898 18.739 19.8468 21.474 24.5981 90 15.9749 16.3577 16.7881 17.2799 17.8534 18.5413 19.401 20.5478 22.2756 25.8886 90 16.6681 17.0478 17.4674 17.936 18.4669 19.0789 19.8016 20.6839 21.8169 23.4025 26.0646 37.5558 90 17.4481 17.8303 18.2586 18.7459 19.311 19.9835 20.8139 21.9001 23.4735 26.3713 90 18.3399 18.7214 19.1474 19.6295 20.185 20.8401 21.6386 22.6613 24.0857 26.4491 35.1575 90 19.3809 19.7604 20.1788 20.6453 21.1721 21.7773 22.4884 23.3505 24.4454 25.9472 28.3519 35.0013 90 20.6315 21.0148 21.4474 21.9438 22.5261 23.2305 24.1222 25.3382 27.2593 32.1877 90 22.1976 22.5811 23.014 23.5113 24.0954 24.8031 25.7012 26.9314 28.8948 34.2212 90 24.2945 24.6797 25.1193 25.6314 26.2445 27.0086 28.0234 29.5384 32.6054 90 27.4779 27.8584 28.2808 28.7555 29.297 29.9276 30.6823 31.6223 32.8692 34.7264 38.4572 90 29.7465 30.1271 30.5496 31.0244 31.5662 32.1974 32.9531 33.8948 35.1454 37.012 40.7883 90 6.77375 7.15766 7.59246 8.09375 8.68559 9.40806 10.3357 11.6332 13.8095 23.0515 30 6.83736 7.05985 7.21414 7.37357 7.53851 7.70933 7.88649 8.07045 8.26178 8.46109 8.66906 8.88649 9.11428 9.35346 9.60523 9.871 10.1524 10.4514 10.7704 11.1121 11.4802 12.5474 13.9233 15.8625 19.1775 90 9.35346 9.7348 10.1601 10.6408 11.1935 11.8436 12.6332 13.6387 15.0246 17.2683 23.9351 30 9.60523 9.99143 10.4349 10.9558 11.5869 12.3875 13.4838 15.232 19.9516 30 9.871 10.2529 10.6803 11.1655 11.7266 12.3918 13.2087 14.2679 15.7763 18.426 30 10.1524 10.5357 10.9682 11.4644 12.0464 12.7502 13.6406 14.8539 16.7668 21.6251 30 10.4514 10.8316 11.2526 11.7244 12.2607 12.8823 13.6212 14.5326 15.7222 17.4381 20.5606 30 10.7704 11.1533 11.5843 12.0773 12.6532 13.3456 14.2139 15.3789 17.1557 21 30 11.1121 11.4972 11.9362 12.4468 13.057 13.8155 14.818 16.3005 19.2089 30 11.4802 11.8611 12.2846 12.7615 13.3072 13.9451 14.7128 15.6767 16.9731 18.9603 23.3981 30 11.879 12.2605 12.6866 13.1689 13.7246 14.3802 15.1796 16.2041 17.6323 20.0083 29.0254 30 12.3141 12.6956 13.1214 13.6032 14.158 14.812 15.6083 16.627 18.0422 20.3765 28.4605 30 12.7927 13.1722 13.5906 14.057 14.5837 15.1887 15.8995 16.761 17.8547 19.3542 21.7519 28.3305 90 13.3247 13.7057 14.1296 14.6076 15.1552 15.7964 16.5699 17.5448 18.8645 20.9154 25.774 90 13.9233 14.3075 14.7433 15.2469 15.8433 16.5745 17.5199 18.8594 21.1809 30 14.6077 14.9944 15.4397 15.9649 16.6047 17.4237 18.5632 20.4491 27.2072 30 15.4066 15.7877 16.2122 16.691 17.2403 17.8844 18.6632 19.648 20.9889 23.0998 28.4166 90 16.3664 16.7505 17.1863 17.6896 18.2855 19.0158 19.9592 21.294 23.5988 90 17.5683 17.9526 18.389 18.8938 19.4926 20.2283 21.1831 22.5452 24.9494 90 19.1775 19.5634 20.0058 20.524 21.1496 21.9391 23.0099 24.6816 28.7243 90 21.6206 22.0052 22.4425 22.9493 23.552 24.2956 25.2665 26.6684 29.2264 90 26.8748 27.2548 27.675 28.1452 28.6786 29.2951 30.0255 30.9213 32.0805 33.7254 36.5871 90 7.05325 7.27427 7.42579 7.58083 7.73957 7.90218 8.06886 8.23981 8.41526 8.59545 8.78064 8.97113 9.16723 9.36926 9.57761 9.79268 10.0149 10.2448 10.483 10.7299 10.9863 11.253 11.5309 11.8208 12.1238 12.4414 12.7748 13.1257 13.4962 13.8885 14.3053 14.7499 15.2263 15.7393 17.227 19.1448 21.8479 26.4689 90 9.36926 9.75067 10.1762 10.6574 11.211 11.8629 12.6555 13.6668 15.0656 17.3487 24.559 30 9.57761 9.95851 10.3822 10.8594 11.4059 12.045 12.8147 13.7825 15.0871 17.0965 21.6746 30 9.79268 10.1759 10.6082 11.1039 11.685 12.387 13.274 14.4796 16.3704 21 30 10.0149 10.3993 10.8357 11.3405 11.9393 12.6751 13.6301 14.9927 17.3987 30 10.2448 10.6251 11.0464 11.5187 12.0561 12.6795 13.4216 14.3386 15.5394 17.2821 20.5103 30 10.483 10.869 11.3119 11.8314 12.4597 13.2546 14.3377 16.0457 20.3872 30 10.7299 11.1115 11.5377 12.0203 12.5767 13.2333 14.0347 15.063 16.5 18.9042 28.7404 30 10.9863 11.3686 11.7975 12.2858 12.8527 13.5285 14.3652 15.4642 17.0692 20.0976 30 11.253 11.6356 12.0655 12.5561 13.1273 13.8109 14.6625 15.7922 17.4752 20.8587 30 11.5309 11.9107 12.3307 12.8002 13.3325 13.9471 14.6741 15.5641 16.7119 18.3308 21.1032 90 11.8208 12.2028 12.6306 13.1167 13.6796 14.348 15.1708 16.2418 17.7783 20.532 30 12.1238 12.5039 12.9243 13.3949 13.9291 14.5469 15.2796 16.1796 17.3467 19.01 21.937 90 12.4414 12.8244 13.256 13.7501 14.3282 15.0246 15.9006 17.0823 18.9053 23.0858 30 12.7748 13.1521 13.563 14.0141 14.5142 15.075 15.7135 16.4547 17.338 18.4314 19.8668 21.9611 25.9005 90 13.1257 13.5088 13.9406 14.4353 15.0144 15.7128 16.5926 17.7825 19.6286 23.9672 30 13.4962 13.8753 14.2926 14.7567 15.2793 15.8775 16.5766 17.4181 18.4749 19.8968 22.0778 26.9625 90 13.8885 14.2731 14.7106 15.2178 15.8214 16.5666 17.5409 18.9514 21.5441 30 14.3053 14.6857 15.1079 15.5819 16.1224 16.7511 17.5025 18.4365 19.6713 21.4978 25.0845 90 14.7499 15.1306 15.5537 16.0298 16.574 17.2092 17.9721 18.9273 20.2053 22.1433 26.2926 90 15.2263 15.6077 16.0335 16.5152 17.0697 17.7232 18.5188 19.5359 20.9475 23.2705 31.142 90 15.7393 16.1168 16.5281 16.9799 17.4812 18.0441 18.6858 19.4321 20.324 21.4322 22.8966 25.0605 29.2961 90 16.2952 16.6769 17.1037 17.5874 18.1458 18.8061 19.6141 20.6555 22.1225 24.6266 44.0893 90 16.9017 17.2857 17.7209 18.223 18.8165 19.5422 20.4762 21.7889 24.0162 36.2501 90 17.5689 17.9515 18.3814 18.872 19.4433 20.1271 20.9789 22.1093 23.7939 27.1851 90 18.3104 18.6919 19.1179 19.6 20.1554 20.8104 21.6087 22.6311 24.0546 26.4154 35.0615 90 19.1448 19.5285 19.9622 20.4612 21.0486 21.7625 22.6729 23.9308 25.9791 32.3287 90 20.0988 20.4825 20.9164 21.4157 22.0035 22.7185 23.6309 24.8936 26.9566 33.5279 90 21.2125 21.5945 22.0218 22.507 23.068 23.7331 24.5499 25.6088 27.1164 29.7633 90 22.5503 22.9319 23.3579 23.8401 24.3956 25.0507 25.8493 26.8723 28.2972 30.6625 39.4132 90 24.2258 24.6098 25.0451 25.5473 26.1411 26.8673 27.8025 29.1178 31.3543 44.6309 90 26.4689 26.8521 27.2842 27.7795 28.3598 29.0604 29.9446 31.144 33.0171 37.5542 90 29.8744 30.2574 30.6889 31.1829 31.7607 32.4565 33.3313 34.5106 36.3266 40.4612 90 37.1985 37.5796 38.0038 38.4822 39.0308 39.6737 40.4502 41.4308 42.7626 44.8474 49.9572 90 7.34411 7.72628 8.15463 8.64187 9.2068 9.879 10.709 11.7942 13.3653 16.2539 30 7.6308 8.01095 8.43188 8.90341 9.4394 10.0603 10.7982 11.7076 12.8932 14.5998 17.6867 30 7.82992 8.05149 8.20406 8.36074 8.52178 8.68743 8.85794 9.03363 9.2148 9.40182 9.59507 9.79499 10.0021 10.2168 10.4398 10.6717 10.9133 11.1654 11.4289 11.705 11.9949 12.3001 12.6223 12.9634 13.3258 13.7124 14.1267 14.5728 15.8664 17.5341 19.8847 23.9029 90 10.2168 10.5988 11.0265 11.5124 12.0747 12.7422 13.5634 14.631 16.1595 18.8832 30 10.4398 10.8187 11.2351 11.6974 12.2168 12.8095 13.4998 14.326 15.3553 16.7211 18.7569 22.8564 90 10.6717 11.0517 11.4721 11.9425 12.4764 13.0938 13.8257 14.7243 15.8888 17.5458 20.4504 30 10.9133 11.2937 11.7156 12.1893 12.7291 13.3566 14.106 15.0362 16.2633 18.0707 21.5713 30 11.1654 11.544 11.9595 12.4198 12.9359 13.523 14.2039 15.0144 16.0157 17.3262 19.2269 22.7394 90 11.4289 11.8104 12.2362 12.7179 13.2726 13.9264 14.7224 15.7404 17.1539 19.4833 27.4709 30 11.705 12.089 12.5241 13.0261 13.6192 14.3441 15.2768 16.586 18.8019 30 11.9949 12.3739 12.7907 13.2536 13.7743 14.3691 15.0627 15.8947 16.9344 18.3211 20.4101 24.775 90 12.3001 12.6802 13.1008 13.5716 14.1063 14.7251 15.4593 16.362 17.5345 19.2103 22.1824 90 12.6223 13.0077 13.4482 13.9622 14.5793 15.3514 16.3836 17.9456 21.2645 30 12.9634 13.3445 13.7691 14.2483 14.7983 15.4436 16.2245 17.2133 18.5629 20.6987 26.2291 90 13.3258 13.7099 14.1453 14.6479 15.2424 15.9699 16.9077 18.2293 20.4874 30 13.7124 14.092 14.511 14.9786 15.5074 16.116 16.8327 17.7047 18.8182 20.3604 22.886 31.0789 90 14.1267 14.5132 14.9582 15.4824 16.1203 16.9352 18.065 19.9189 26.0417 30 14.5728 14.9617 15.4156 15.9608 16.6435 17.5574 18.9442 21.9219 30 15.0562 15.4354 15.8531 16.318 16.842 17.4424 18.1454 18.9935 20.0624 21.5094 23.7585 29.0891 90 15.5836 15.9692 16.4106 16.9267 17.548 18.3285 19.3793 20.9933 24.6276 30 16.1638 16.5508 16.9978 17.5265 18.1738 19.0088 20.1869 22.2059 30 16.8085 17.1886 17.6091 18.0798 18.6142 19.2325 19.9658 20.867 22.0366 23.7054 26.6523 90 17.5341 17.9202 18.3634 18.8835 19.5129 20.3102 21.3987 23.1232 27.6127 90 18.3637 18.7453 19.1716 19.6544 20.2112 20.8685 21.671 22.7017 24.1439 26.5656 37.0254 90 19.3321 19.7118 20.1312 20.5994 21.1294 21.74 22.4602 23.3383 24.4633 26.0308 28.6354 38.374 90 20.4954 20.8779 21.3073 21.7968 22.3659 23.0459 23.8904 25.0054 26.6508 29.8566 90 21.9523 22.3363 22.7715 23.2735 23.8667 24.5918 25.5248 26.8349 29.0537 40.5414 90 23.9029 24.2824 24.7008 25.1673 25.6941 26.2993 27.0104 27.8725 28.9673 30.4692 32.8738 39.5228 90 26.8642 27.2473 27.6793 28.1742 28.7538 29.453 30.3345 31.5281 33.3845 37.7974 90 33.233 33.6143 34.0396 34.5204 35.0732 35.7237 36.5137 37.5202 38.9081 41.1579 47.9033 90 8.03409 8.25657 8.41086 8.5703 8.73523 8.90606 9.08321 9.26718 9.45851 9.65782 9.86579 10.0832 10.311 10.5502 10.802 11.0677 11.3491 11.6481 11.9671 12.3089 12.6769 13.7442 15.12 17.0592 20.3743 90 10.5502 10.9309 11.3539 11.8298 12.3736 13.0082 13.77 14.7231 15.9968 17.9234 22.01 30 10.802 11.1816 11.6006 12.0681 12.5969 13.2055 13.9223 14.7943 15.9079 17.4502 19.976 28.1739 30 11.0677 11.4507 11.8822 12.3761 12.9537 13.6492 14.5235 15.7016 17.5144 21.6277 30 11.3491 11.7307 12.1568 12.6393 13.1954 13.8516 14.652 15.6786 17.1116 19.503 28.9424 30 11.6481 12.0311 12.4623 12.9557 13.5323 14.2259 15.0967 16.2669 18.0583 22.0361 30 11.9671 12.3475 12.7693 13.2428 13.7822 14.409 15.1572 16.0852 17.3078 19.1041 22.5562 90 12.3089 12.6908 13.1184 13.6041 14.166 14.8327 15.6524 16.7172 18.2387 20.9366 30 12.6769 13.0583 13.4837 13.9646 14.5176 15.1685 15.9593 16.9671 18.3581 20.6174 27.4885 30 13.0757 13.4614 13.903 14.4194 15.0413 15.8232 16.877 18.4995 22.1897 30 13.5108 13.8943 14.3275 14.8253 15.4103 16.1199 17.0216 18.2599 20.2478 25.8343 30 13.9895 14.3709 14.7963 15.2775 15.831 16.4826 17.2747 18.2852 19.6821 21.9594 29.0831 90 14.5214 14.9025 15.327 15.806 16.3557 17.0004 17.7802 18.767 20.112 22.2349 27.6529 90 15.12 15.5037 15.9374 16.4364 17.0237 17.7376 18.6479 19.9058 21.9537 28.2986 90 15.8044 16.1858 16.6113 17.0924 17.6459 18.2975 19.0896 20.0999 21.4966 23.7733 30.8875 90 16.6034 16.9838 17.4057 17.8793 18.419 19.0464 19.7954 20.7251 21.9511 23.7558 27.2445 90 17.5631 17.9445 18.37 18.8513 19.405 20.057 20.8498 21.8616 23.2615 25.5479 32.8081 90 18.765 19.1483 19.5808 20.077 20.6589 21.3625 22.2526 23.465 25.3758 30.215 90 20.3743 20.7587 21.1954 21.7009 22.3011 23.0398 24.0004 25.377 27.8356 90 22.8173 23.1992 23.6265 24.1114 24.672 25.3364 26.1518 27.2079 28.709 31.3324 90 28.0716 28.4537 28.8817 29.3683 29.9319 30.6018 31.4275 32.5041 34.0542 36.8599 90 8.15433 8.37652 8.53024 8.68877 8.85241 9.02151 9.19644 9.37762 9.56551 9.76063 9.96355 10.1749 10.3955 10.6261 10.8677 11.1214 11.3884 11.6703 11.9688 12.2859 12.6242 12.9867 13.377 14.5089 15.9682 18.0249 21.5409 90 10.6261 11.0053 11.4228 11.8872 12.4104 13.0096 13.7105 14.555 15.6173 17.0504 19.2617 24.3375 90 10.8677 11.2507 11.6822 12.1762 12.754 13.4499 14.3249 15.5045 17.3215 21.4624 30 11.1214 11.5011 11.9204 12.3885 12.9183 13.5287 14.2484 15.1257 16.2491 17.8133 20.4069 29.8908 90 11.3884 11.7717 12.204 12.6999 13.2813 13.984 14.8723 16.0807 17.9796 22.7204 30 11.6703 12.0526 12.4815 12.9698 13.5368 14.2127 15.0497 16.1493 17.7557 20.7899 30 11.9688 12.3512 12.7803 13.2693 13.8375 14.5158 15.357 16.4654 18.0938 21.2235 30 12.2859 12.6647 13.081 13.5428 14.0615 14.6531 15.3414 16.1642 17.1875 18.5414 20.5472 24.5065 90 12.6242 13.0038 13.4228 13.8904 14.4193 15.0279 15.7449 16.6172 17.7313 19.2748 21.8042 30 90 12.9867 13.3755 13.8294 14.3745 15.0571 15.9707 17.3565 20.3286 30 13.377 13.7609 14.1955 14.6964 15.2874 16.0082 16.9326 18.2225 20.3737 28.7879 30 13.8 14.1834 14.6163 15.1135 15.6974 16.4046 17.3019 18.5303 20.4883 25.7605 30 14.2614 14.6444 15.0755 15.5687 16.1449 16.838 17.7075 18.8752 20.6594 24.5938 30 14.7691 15.1525 15.5854 16.0824 16.666 17.3728 18.2692 19.4955 21.4472 26.6585 30 15.3333 15.7138 16.1362 16.6106 17.1519 17.782 18.5359 19.4744 20.7183 22.5678 26.2618 90 15.9682 16.3517 16.785 17.2831 17.8686 18.579 19.4825 20.7248 22.7249 28.4494 90 16.6941 17.0801 17.5231 18.0428 18.6715 19.4672 20.5521 22.2658 26.6569 30 17.5414 17.9229 18.3489 18.8309 19.3861 20.0407 20.8383 21.8594 23.28 25.6315 34.0695 90 18.5593 18.9381 19.3543 19.816 20.3345 20.9257 21.6133 22.435 23.4563 24.8062 26.8022 30.7169 90 19.8341 20.2171 20.6484 21.1421 21.7193 22.4141 23.2869 24.4617 26.2655 30.3213 90 21.5409 21.9221 22.3472 22.8273 23.3791 24.0276 24.8142 25.8139 27.1871 29.3924 35.6066 90 24.132 24.5124 24.9341 25.4074 25.9466 26.5731 27.3205 28.2473 29.4673 31.2573 34.682 90 29.7047 30.085 30.5064 30.979 31.5168 32.141 32.8846 33.8042 35.01 36.7651 40.0434 90 8.31752 8.53889 8.69107 8.84716 9.00735 9.17187 9.34097 9.51489 9.69393 9.8784 10.0686 10.265 10.4679 10.6778 10.8952 11.1207 11.3549 11.5984 11.852 12.1167 12.3935 12.6834 12.9878 13.3082 13.6465 14.0046 14.3852 14.7911 15.2261 15.6946 17.0528 18.8039 21.272 25.4911 90 10.6778 11.0594 11.4856 11.9681 12.5243 13.1807 13.9816 15.0089 16.4436 18.8407 28.4486 30 10.8952 11.2747 11.6934 12.1601 12.6875 13.2938 14 14.8634 15.9612 17.47 19.8965 26.7948 90 11.1207 11.5035 11.9339 12.4258 12.9993 13.6874 14.5474 15.6949 17.4246 21 30 11.3549 11.7401 12.18 12.6927 13.3072 14.0739 15.0943 16.6244 19.7693 30 11.5984 11.9788 12.4008 12.8747 13.4148 14.0429 14.7932 15.7252 16.9558 18.772 22.312 30 11.852 12.2318 12.6512 13.1196 13.6501 14.2614 14.983 15.8632 16.9924 18.5694 21.2037 31.7473 90 12.1167 12.4971 12.9191 13.3927 13.9326 14.5601 15.3095 16.2398 17.467 19.2747 22.7766 90 12.3935 12.7748 13.2 13.6806 14.2332 14.8831 15.6723 16.6769 18.061 20.299 26.8948 30 12.6834 13.0656 13.4941 13.9817 14.5472 15.2206 16.0527 17.1423 18.7241 21.6558 30 12.9878 13.369 13.7941 14.2742 14.826 15.4745 16.261 17.2606 18.6336 20.8383 27.0462 90 13.3082 13.688 14.1077 14.5766 15.1078 15.7206 16.4446 17.3291 18.4665 20.0618 22.7555 35.7175 90 13.6465 14.028 14.4541 14.9365 15.4924 16.1483 16.9482 17.9736 19.4042 21.7876 31.0008 90 14.0046 14.3851 14.8074 15.2818 15.8229 16.4527 17.206 18.1434 19.385 21.229 24.8966 90 14.3852 14.7657 15.1879 15.6623 16.2033 16.8329 17.5859 18.5229 19.7635 21.6049 25.2605 90 14.7911 15.1761 15.6147 16.1246 16.7333 17.4887 18.4847 19.9502 22.7799 30 15.2261 15.6077 16.0338 16.5164 17.0725 17.7288 18.5295 19.5565 20.9906 23.3854 32.9246 90 15.6946 16.0744 16.4942 16.9634 17.4952 18.1089 18.8344 19.7217 20.8643 22.4714 25.2042 41.462 90 16.2021 16.5864 17.0226 17.527 18.125 18.8593 19.811 21.1657 23.5424 90 16.7558 17.1381 17.5669 18.0552 18.622 19.2975 20.1338 21.232 22.8349 25.8543 90 17.365 17.7493 18.1854 18.6897 19.2873 20.0208 20.971 22.3222 24.6858 90 18.0421 18.4277 18.8691 19.3852 20.0064 20.7869 21.8376 23.4512 27.0833 90 18.8039 19.1856 19.6122 20.0957 20.6536 21.313 22.1195 23.1577 24.6174 27.0969 41.2418 90 19.675 20.0553 20.4767 20.9494 21.4873 22.1117 22.8555 23.7756 24.9825 26.74 30 90 20.6918 21.0759 21.5114 22.0143 22.6091 23.3374 24.2767 25.6019 27.8727 90 21.9133 22.2945 22.7194 23.1993 23.7506 24.3982 25.1832 26.1798 27.5463 29.7317 35.7344 90 23.443 23.8246 24.2508 24.7333 25.2893 25.9455 26.746 27.7727 29.2059 31.598 41.0567 90 25.4911 25.8705 26.2888 26.7549 27.2812 27.8854 28.5948 29.4538 30.5431 32.0331 34.4031 40.712 90 28.6005 28.98 29.3988 29.8658 30.3936 31.0005 31.7145 32.5816 33.6858 35.2079 37.6725 45.0035 90 35.2877 35.6671 36.0852 36.5508 37.0762 37.6791 38.3862 39.2414 40.3234 41.7978 44.1235 50.0403 90 8.54379 8.76526 8.91763 9.07401 9.23461 9.39968 9.56946 9.74424 9.92432 10.11 10.3017 10.4998 10.7047 10.917 11.1371 11.3656 11.6033 11.851 12.1093 12.3795 12.6625 12.9597 13.2725 13.6027 13.9523 14.3238 14.7201 15.1447 15.602 16.9279 18.6373 21.0466 25.1653 90 10.917 11.2984 11.7242 12.206 12.7607 13.4145 14.2106 15.2286 16.6424 18.9724 26.9731 30 11.1371 11.5212 11.9571 12.4607 13.057 13.788 14.7331 16.072 18.391 30 11.3656 11.7507 12.1898 12.7006 13.3114 14.0708 15.0753 16.563 19.4963 30 11.6033 11.9876 12.4237 12.9278 13.5253 14.2585 15.2082 16.5578 18.916 30 11.851 12.2333 12.6624 13.1511 13.7187 14.396 15.2354 16.3399 17.9587 21 30 12.1093 12.4938 12.9307 13.4366 14.0376 14.7777 15.7414 17.1255 19.6131 30 12.3795 12.7613 13.1882 13.6725 14.2319 14.8939 15.7052 16.7529 18.2346 20.7895 30 12.6625 13.0479 13.4882 14 14.6158 15.3855 16.4125 17.9609 21.2063 30 12.9597 13.3446 13.7832 14.293 14.9017 15.657 16.6526 18.1173 20.9432 30 13.2725 13.6541 14.0802 14.5628 15.1191 15.7756 16.5766 17.6044 19.0401 21.4401 31.1418 90 13.6027 13.9856 14.4167 14.9099 15.4862 16.1793 17.049 18.217 20.002 23.9409 30 13.9523 14.3338 14.7595 15.2411 15.7955 16.4488 17.244 18.2603 19.6702 21.9878 29.7615 90 14.3238 14.7035 15.1227 15.5908 16.1206 16.7309 17.4505 18.3275 19.4504 21 23.578 32.7494 90 14.7201 15.1024 15.5312 16.0193 16.586 17.2614 18.0973 19.1946 20.7955 23.8064 90 15.1447 15.5265 15.9537 16.4383 16.9984 17.6617 18.4753 19.5278 21.0204 23.6136 90 15.602 15.9811 16.3984 16.8623 17.3846 17.9823 18.6807 19.5209 20.5754 21.9924 24.1604 28.9666 90 16.0975 16.4818 16.9184 17.4236 18.0231 18.7604 19.7182 21.088 23.5206 90 16.638 17.0224 17.459 17.9642 18.5637 19.3011 20.2592 21.6294 24.0638 90 17.2327 17.6139 18.0386 18.518 19.0684 19.7145 20.4967 21.4881 22.8432 24.9951 30.671 90 17.8936 18.2732 18.6921 19.1596 19.6882 20.2964 21.0126 21.8835 22.9949 24.5328 27.0448 35.0284 90 18.6373 19.0186 19.4438 19.9241 20.4763 21.1254 21.9132 22.9152 24.2934 26.5138 32.8981 90 19.4876 19.868 20.2899 20.7635 21.3031 21.9302 22.6789 23.6079 24.8325 26.6338 30.1074 90 20.4803 20.8629 21.2927 21.7832 22.3543 23.0377 23.8889 25.0177 26.6985 30.0709 90 21.6727 22.0554 22.4858 22.9773 23.5505 24.2378 25.0962 26.2403 27.9612 31.5371 90 23.166 23.5451 23.9625 24.4267 24.9494 25.5478 26.2475 27.0897 28.1479 29.5727 31.7614 36.6936 90 25.1653 25.5461 25.9696 26.4463 26.9918 27.6291 28.3958 29.3579 30.6506 32.6278 37.0041 90 28.2007 28.5849 29.0209 29.5249 30.122 30.8546 31.8028 33.1491 35.4952 90 34.7286 35.1076 35.5244 35.9873 36.5079 37.1027 37.7963 38.6281 39.6676 41.0539 43.1417 