<?xml version="1.0"?><VTKFile type="PolyData" version="0.1" byte_order="LittleEndian">
<PolyData>
<Piece NumberOfLines="247" NumberOfPoints="1972">
<PointData Scalars=" PointData">
<DataArray type="Float32" Name="time" NumberOfComponents="1" format="ascii" >
0 0.364105 0.386762 0.50787 0.527747 0.726473 0.916515 1.10118 1.22862 1.34714 1.43295 1.55307 1.79931 1.81229 1.84301 2.04849 2.27344 2.55085 2.73776 2.79479 2.98827 3.24874 3.50528 3.68333 3.86578 3.9732 4.11891 4.32083 4.55453 4.65242 4.90742 5.02433 5.27329 5.43761 5.70913 5.98805 6.17239 6.24493 6.42293 6.67747 6.79859 6.93302 7.10676 7.35753 7.53579 7.6418 7.77071 7.90617 8.11498 8.31872 8.44339 8.52144 8.57542 8.84029 9.05099 9.35482 9.56195 9.77562 10.0795 10.2069 10.4153 10.6316 10.8862 11.0465 11.3675 11.5825 11.7109 11.847 12.0338 12.0979 12.1683 12.3713 12.4672 12.5771 12.7822 13.0919 13.1052 13.4016 13.5128 13.7506 13.8651 13.9842 14 4.13593 4.35761 4.51038 4.6674 4.8289 4.99515 5.16644 5.34309 5.52543 5.71385 5.90878 6.11066 6.32003 6.53744 6.76356 6.9991 7.24489 7.50185 7.77105 8.05372 8.35127 8.66536 8.99794 9.35131 9.72826 10.1322 10.5672 11.8284 13.4544 14 6.53744 6.92163 7.3575 7.86113 8.45754 9.18883 10.1344 11.4743 13.7972 14 6.76356 7.15063 7.59755 8.12626 8.77356 9.6085 10.7864 12.805 14 6.9991 7.38012 7.80424 8.28246 8.83064 9.4728 10.248 11.2261 12.5526 14 7.24489 7.62745 8.05725 8.5476 9.11841 9.80136 10.6516 11.7785 13.4543 14 7.50185 7.88181 8.3021 8.77231 9.3059 9.92268 10.6534 11.5501 12.7108 14 7.77105 8.15266 8.57893 9.06171 9.61831 10.2755 11.0777 12.1077 13.5485 14 8.05372 8.43482 8.85923 9.33806 9.88737 10.5315 11.3103 12.2951 13.636 14 8.35127 8.73407 9.16473 9.65695 10.2313 10.9208 11.7836 12.9369 14 8.66536 9.04661 9.47157 9.95157 10.503 11.151 11.9366 12.9344 14 8.99794 9.38046 9.81007 10.3 10.8701 11.5517 12.3994 13.5211 14 9.35131 9.73521 10.17 10.6712 11.2629 11.985 12.912 14 9.72826 10.1107 10.54 11.0294 11.5983 12.2778 13.1215 14 10.1322 10.5148 10.9447 11.4352 12.0065 12.6903 13.542 14 10.5672 10.9494 11.3782 11.8663 12.4329 13.1081 13.9437 14 11.0384 11.4162 11.8286 12.2825 12.7875 13.3564 14 11.5526 11.9352 12.365 12.8553 13.426 14 12.1183 12.5017 12.9343 13.4308 14 12.747 13.127 13.5476 14 13.4544 13.8376 14 4.16102 4.54295 4.9704 5.45572 6.01704 6.68268 7.50048 8.56127 10.0735 12.7372 14 4.29516 4.67723 5.10518 5.59155 6.15487 6.82412 7.6486 8.72279 10.267 13.0503 14 4.31719 4.6969 5.1163 5.58467 6.11495 6.72606 7.44713 8.32664 9.45438 11.0281 13.652 14 4.53742 4.91753 5.33837 5.8097 6.34533 6.96561 7.7024 8.60986 9.79165 11.4892 14 4.74815 5.12899 5.55244 6.02927 6.57489 7.21256 7.97975 8.94287 10.2376 12.2202 14 4.95303 5.17568 5.33029 5.49022 5.65587 5.82766 6.00605 6.19158 6.38485 6.58652 6.79736 7.01824 7.25017 7.49432 7.75203 8.02492 8.31487 8.62416 8.95556 9.31248 10.3474 11.6815 13.5619 14 7.49432 7.87995 8.32132 8.83727 9.45826 10.2383 11.2879 12.8985 14 7.75203 8.13061 8.54595 9.00597 9.52145 10.1076 10.787 11.5949 12.5917 13.8934 14 8.02492 8.40614 8.83098 9.31073 9.86171 10.5088 11.2929 12.2879 13.6508 14 8.31487 8.69962 9.13763 9.64603 10.2519 11.0016 11.9854 13.4198 14 8.62416 9.00717 9.43861 9.93252 10.5101 11.2056 12.0799 13.2579 14 8.95556 9.33764 9.76562 10.2521 10.8155 11.485 12.3099 13.3849 14 9.31248 9.69404 10.1201 10.6025 11.1584 11.8142 12.6141 13.6394 14 9.69918 10.0822 10.5138 11.0081 11.5864 12.2833 13.1602 14 10.1211 10.5044 10.9371 11.4337 12.0164 12.7216 13.6148 14 10.5852 10.9658 11.3882 11.8629 12.4046 13.0354 13.7906 14 11.1011 11.4863 11.9262 12.4389 13.0533 13.8201 14 11.6815 12.0608 12.4788 12.9441 13.4689 14 12.3452 12.7273 13.1555 13.6424 14 13.1199 13.5016 13.9282 14 5.09448 5.47723 5.9077 6.3995 6.97307 7.66112 8.52105 9.66837 11.3976 14 5.22609 5.60547 6.02367 6.48954 7.01537 7.6189 8.32715 9.18425 10.2699 11.752 14 5.32139 5.54308 5.69585 5.85286 6.01436 6.18062 6.35191 6.52855 6.7109 6.89932 7.09424 7.29613 7.50549 7.72291 7.94902 8.18457 8.43035 8.68731 8.95651 9.23918 9.53673 9.85082 10.1834 10.5368 10.9137 11.3176 11.7526 13.0139 14 7.72291 8.10522 8.53406 9.02237 9.58931 10.2652 11.102 12.2012 13.8069 14 7.94902 8.33009 8.75435 9.23288 9.78163 10.4248 11.2018 12.1833 13.517 14 8.18457 8.56613 8.99222 9.47464 10.0306 10.6865 11.4865 12.5122 13.9432 14 8.43035 8.81013 9.22977 9.69862 10.2298 10.8424 11.566 12.45 13.5864 14 8.68731 9.07188 9.50917 10.016 10.6186 11.3621 12.3329 13.7344 14 8.95651 9.33699 9.75911 10.2332 10.7737 11.4025 12.154 13.0882 14 9.23918 9.62292 10.0571 10.557 11.1462 11.8635 12.7807 14 9.53673 9.91669 10.3369 10.8071 11.3405 11.957 12.6874 13.5832 14 9.85082 10.2326 10.6596 11.1438 11.7032 12.3653 13.1765 14 10.1834 10.5637 10.985 11.4574 11.9949 12.6185 13.361 14 10.5368 10.9184 11.3446 11.8273 12.3839 13.0408 13.8427 14 10.9137 11.2971 11.7297 12.2262 12.8088 13.5138 14 11.3176 11.6974 12.117 12.5857 13.1167 13.729 14 11.7526 12.1332 12.5556 13.0302 13.5718 14 12.2239 12.6065 13.0363 13.5267 14 12.7381 13.1205 13.5499 14 13.3038 13.685 14 13.9325 14 5.45486 5.83949 6.27705 6.78444 7.38827 8.13402 9.10957 10.523 13.1276 14 5.7286 6.10694 6.52144 6.97974 7.49221 8.07339 8.7446 9.53895 10.512 11.7682 13.5432 14 5.74304 6.12391 6.54748 7.02455 7.57061 8.20905 8.9776 9.94327 11.2434 13.2405 14 5.7772 6.16055 6.59323 7.08985 7.67265 8.37794 9.27129 10.491 12.4229 14 6.00582 6.38994 6.82553 7.32857 7.92381 8.65283 9.59375 10.9226 13.2063 14 6.25626 6.63954 7.07197 7.56804 8.14977 8.85305 9.74247 10.9534 12.8599 14 6.56535 6.78662 6.93863 7.09443 7.25423 7.41824 7.58668 7.7598 7.93786 8.12117 8.31003 8.50479 8.70584 8.91358 9.1285 9.35109 9.58193 9.82164 10.071 10.3307 10.6016 10.885 11.1818 11.4934 11.8215 12.1678 12.5345 12.9241 13.3397 13.7851 14 8.91358 9.29532 9.72206 10.2058 10.7643 11.4248 12.2331 13.2751 14 9.1285 9.50898 9.93115 10.4053 10.946 11.575 12.327 13.2621 14 9.35109 9.73276 10.1593 10.6425 11.2001 11.8589 12.6641 13.7 14 9.58193 9.96181 10.3818 10.8514 11.3839 11.9988 12.7264 13.6174 14 9.82164 10.205 10.6375 11.1339 11.7162 12.4206 13.3121 14 10.071 10.4538 10.8844 11.3766 11.951 12.6405 13.5032 14 10.3307 10.7123 11.1386 11.6214 12.1781 12.8354 13.6379 14 10.6016 10.9804 11.3965 11.8579 12.3759 12.9663 13.6526 14 10.885 11.2663 11.6916 12.1723 12.725 13.3752 14 11.1818 11.5666 12.0048 12.5138 13.1207 13.8725 14 11.4934 11.8755 12.3034 12.7896 13.3526 14 11.8215 12.2062 12.6442 13.1524 13.758 14 12.1678 12.5466 12.9629 13.4248 13.9437 14 12.5345 12.9192 13.3572 13.8656 14 12.9241 13.3092 13.7483 14 13.3397 13.7209 14 13.7851 14 6.77375 7.15766 7.59246 8.09375 8.68559 9.40806 10.3357 11.6332 13.8095 14 6.83736 7.05985 7.21414 7.37357 7.53851 7.70933 7.88649 8.07045 8.26178 8.46109 8.66906 8.88649 9.11428 9.35346 9.60523 9.871 10.1524 10.4514 10.7704 11.1121 11.4802 12.5474 13.9233 14 9.35346 9.7348 10.1601 10.6408 11.1935 11.8436 12.6332 13.6387 14 9.60523 9.99143 10.4349 10.9558 11.5869 12.3875 13.4838 14 9.871 10.2529 10.6803 11.1655 11.7266 12.3918 13.2087 14 10.1524 10.5357 10.9682 11.4644 12.0464 12.7502 13.6406 14 10.4514 10.8316 11.2526 11.7244 12.2607 12.8823 13.6212 14 10.7704 11.1533 11.5843 12.0773 12.6532 13.3456 14 11.1121 11.4972 11.9362 12.4468 13.057 13.8155 14 11.4802 11.8611 12.2846 12.7615 13.3072 13.9451 14 11.879 12.2605 12.6866 13.1689 13.7246 14 12.3141 12.6956 13.1214 13.6032 14 12.7927 13.1722 13.5906 14 13.3247 13.7057 14 13.9233 14 7.05325 7.27427 7.42579 7.58083 7.73957 7.90218 8.06886 8.23981 8.41526 8.59545 8.78064 8.97113 9.16723 9.36926 9.57761 9.79268 10.0149 10.2448 10.483 10.7299 10.9863 11.253 11.5309 11.8208 12.1238 12.4414 12.7748 13.1257 13.4962 13.8885 14 9.36926 9.75067 10.1762 10.6574 11.211 11.8629 12.6555 13.6668 14 9.57761 9.95851 10.3822 10.8594 11.4059 12.045 12.8147 13.7825 14 9.79268 10.1759 10.6082 11.1039 11.685 12.387 13.274 14 10.0149 10.3993 10.8357 11.3405 11.9393 12.6751 13.6301 14 10.2448 10.6251 11.0464 11.5187 12.0561 12.6795 13.4216 14 10.483 10.869 11.3119 11.8314 12.4597 13.2546 14 10.7299 11.1115 11.5377 12.0203 12.5767 13.2333 14 10.9863 11.3686 11.7975 12.2858 12.8527 13.5285 14 11.253 11.6356 12.0655 12.5561 13.1273 13.8109 14 11.5309 11.9107 12.3307 12.8002 13.3325 13.9471 14 11.8208 12.2028 12.6306 13.1167 13.6796 14 12.1238 12.5039 12.9243 13.3949 13.9291 14 12.4414 12.8244 13.256 13.7501 14 12.7748 13.1521 13.563 14 13.1257 13.5088 13.9406 14 13.4962 13.8753 14 13.8885 14 7.34411 7.72628 8.15463 8.64187 9.2068 9.879 10.709 11.7942 13.3653 14 7.6308 8.01095 8.43188 8.90341 9.4394 10.0603 10.7982 11.7076 12.8932 14 7.82992 8.05149 8.20406 8.36074 8.52178 8.68743 8.85794 9.03363 9.2148 9.40182 9.59507 9.79499 10.0021 10.2168 10.4398 10.6717 10.9133 11.1654 11.4289 11.705 11.9949 12.3001 12.6223 12.9634 13.3258 13.7124 14 10.2168 10.5988 11.0265 11.5124 12.0747 12.7422 13.5634 14 10.4398 10.8187 11.2351 11.6974 12.2168 12.8095 13.4998 14 10.6717 11.0517 11.4721 11.9425 12.4764 13.0938 13.8257 14 10.9133 11.2937 11.7156 12.1893 12.7291 13.3566 14 11.1654 11.544 11.9595 12.4198 12.9359 13.523 14 11.4289 11.8104 12.2362 12.7179 13.2726 13.9264 14 11.705 12.089 12.5241 13.0261 13.6192 14 11.9949 12.3739 12.7907 13.2536 13.7743 14 12.3001 12.6802 13.1008 13.5716 14 12.6223 13.0077 13.4482 13.9622 14 12.9634 13.3445 13.7691 14 13.3258 13.7099 14 13.7124 14 8.03409 8.25657 8.41086 8.5703 8.73523 8.90606 9.08321 9.26718 9.45851 9.65782 9.86579 10.0832 10.311 10.5502 10.802 11.0677 11.3491 11.6481 11.9671 12.3089 12.6769 13.7442 14 10.5502 10.9309 11.3539 11.8298 12.3736 13.0082 13.77 14 10.802 11.1816 11.6006 12.0681 12.5969 13.2055 13.9223 14 11.0677 11.4507 11.8822 12.3761 12.9537 13.6492 14 11.3491 11.7307 12.1568 12.6393 13.1954 13.8516 14 11.6481 12.0311 12.4623 12.9557 13.5323 14 11.9671 12.3475 12.7693 13.2428 13.7822 14 12.3089 12.6908 13.1184 13.6041 14 12.6769 13.0583 13.4837 13.9646 14 13.0757 13.4614 13.903 14 13.5108 13.8943 14 13.9895 14 8.15433 8.37652 8.53024 8.68877 8.85241 9.02151 9.19644 9.37762 9.56551 9.76063 9.96355 10.1749 10.3955 10.6261 10.8677 11.1214 11.3884 11.6703 11.9688 12.2859 12.6242 12.9867 13.377 14 10.6261 11.0053 11.4228 11.8872 12.4104 13.0096 13.7105 14 10.8677 11.2507 11.6822 12.1762 12.754 13.4499 14 11.1214 11.5011 11.9204 12.3885 12.9183 13.5287 14 11.3884 11.7717 12.204 12.6999 13.2813 13.984 14 11.6703 12.0526 12.4815 12.9698 13.5368 14 11.9688 12.3512 12.7803 13.2693 13.8375 14 12.2859 12.6647 13.081 13.5428 14 12.6242 13.0038 13.4228 13.8904 14 12.9867 13.3755 13.8294 14 13.377 13.7609 14 13.8 14 8.31752 8.53889 8.69107 8.84716 9.00735 9.17187 9.34097 9.51489 9.69393 9.8784 10.0686 10.265 10.4679 10.6778 10.8952 11.1207 11.3549 11.5984 11.852 12.1167 12.3935 12.6834 12.9878 13.3082 13.6465 14 10.6778 11.0594 11.4856 11.9681 12.5243 13.1807 13.9816 14 10.8952 11.2747 11.6934 12.1601 12.6875 13.2938 14 11.1207 11.5035 11.9339 12.4258 12.9993 13.6874 14 11.3549 11.7401 12.18 12.6927 13.3072 14 11.5984 11.9788 12.4008 12.8747 13.4148 14 11.852 12.2318 12.6512 13.1196 13.6501 14 12.1167 12.4971 12.9191 13.3927 13.9326 14 12.3935 12.7748 13.2 13.6806 14 12.6834 13.0656 13.4941 13.9817 14 12.9878 13.369 13.7941 14 13.3082 13.688 14 13.6465 14 8.54379 8.76526 8.91763 9.07401 9.23461 9.39968 9.56946 9.74424 9.92432 10.11 10.3017 10.4998 10.7047 10.917 11.1371 11.3656 11.6033 11.851 12.1093 12.3795 12.6625 12.9597 13.2725 13.6027 13.9523 14 10.917 11.2984 11.7242 12.206 12.7607 13.4145 14 11.1371 11.5212 11.9571 12.4607 13.057 13.788 14 11.3656 11.7507 12.1898 12.7006 13.3114 14 11.6033 11.9876 12.4237 12.9278 13.5253 14 11.851 12.2333 12.6624 13.1511 13.7187 14 12.1093 12.4938 12.9307 13.4366 14 12.3795 12.7613 13.1882 13.6725 14 12.6625 13.0479 13.4882 14 12.9597 13.3446 13.7832 14 13.2725 13.6541 14 13.6027 13.9856 14 13.9523 14 8.80587 9.02779 9.18101 9.33874 9.50124 9.66883 9.84182 10.0206 10.2055 10.397 10.5957 10.8019 11.0165 11.2399 11.4731 11.7169 11.9723 12.2405 12.5227 12.8207 13.1363 13.4715 13.8291 14 11.2399 11.6205 12.0428 12.5173 13.0587 13.689 14 11.4731 11.8599 12.3057 12.8319 13.474 14 11.7169 12.1001 12.5322 13.0275 13.6078 14 11.9723 12.3527 12.7744 13.2477 13.7868 14 12.2405 12.621 13.0434 13.5181 14 12.5227 12.9018 13.3191 13.7829 14 12.8207 13.2042 13.6375 14 13.1363 13.5249 13.9778 14 13.4715 13.8529 14 13.8291 14 8.80587 9.18645 9.60898 10.0839 10.6259 11.2573 12.0135 12.9562 14 8.9157 9.13727 9.28983 9.44652 9.60756 9.77321 9.94372 10.1194 10.3006 10.4876 10.6809 10.8808 11.0878 11.3026 11.5256 11.7575 11.9991 12.2511 12.5147 12.7908 13.0807 13.3859 13.708 14 11.3026 11.6903 12.1399 12.6747 13.335 14 11.5256 11.9074 12.3348 12.8197 13.3805 14 11.7575 12.1404 12.5714 13.0645 13.6404 14 11.9991 12.3807 12.8073 13.2906 13.8483 14 12.2511 12.631 13.0508 13.5202 14 12.5147 12.8956 13.3192 13.7963 14 12.7908 13.1728 13.6004 14 13.0807 13.4598 13.8769 14 13.3859 13.7672 14 13.708 14 8.9157 9.29742 9.72411 10.2078 10.7661 11.4262 12.2339 13.2746 14 9.20198 9.58641 10.0232 10.5289 11.1294 11.8685 12.8303 14 9.33331 9.71438 10.1387 10.6173 11.1663 11.8097 12.5873 13.5699 14 9.61316 9.83581 9.99041 10.1503 10.316 10.4878 10.6662 10.8517 11.045 11.2466 11.4575 11.6784 11.9103 12.1544 12.4122 12.685 12.975 13.2843 13.6157 13.9726 14 12.1544 12.5366 12.9651 13.4526 14 12.4122 12.7923 13.2131 13.6844 14 12.685 13.0653 13.4867 13.9593 14 12.975 13.3568 13.7837 14 13.2843 13.6682 14 13.6157 13.9975 14 13.9726 14 9.79799 10.1846 10.63 11.1549 11.7944 12.6128 13.7507 14 10.1036 10.4842 10.9069 11.3819 11.9244 12.5564 13.3138 14 10.4179 10.7973 11.2158 11.6821 12.2088 12.8137 13.5243 14 10.6257 11.0057 11.426 11.8962 12.4297 13.0464 13.777 14 10.7076 11.09 11.5194 12.0089 12.5781 13.258 14 10.9085 11.1305 11.284 11.4421 11.6052 11.7735 11.9474 12.1273 12.3137 12.5069 12.7076 12.9164 13.1338 13.3607 13.5979 13.8464 14 13.3607 13.7448 14 13.5979 13.9782 14 13.8464 14 11.196 11.5771 12.0018 12.4812 13.0316 13.6776 14 11.3329 11.5549 11.7084 11.8665 12.0295 12.1979 12.3718 12.5517 12.7381 12.9313 13.132 13.3407 13.5582 13.785 14 13.785 14 11.4849 11.7072 11.8612 12.0202 12.1844 12.3544 12.5304 12.7129 12.9024 13.0995 13.3049 13.5192 13.7432 13.9779 14 13.9779 14 11.6814 12.0644 12.4957 12.9893 13.5663 14 11.9653 12.1871 12.3401 12.4975 12.6595 12.8264 12.9985 13.1761 13.3597 13.5497 13.7464 13.9504 14 12.1673 12.5481 12.9716 13.4485 13.9942 14 12.2875 12.6692 13.0957 13.5791 14 12.4337 12.818 13.2542 13.7586 14 12.5874 12.9695 13.3974 13.8838 14 12.8245 13.046 13.1986 13.3553 13.5163 13.682 13.8525 14 13.056 13.4397 13.8737 14 13.1977 13.577 13.9951 14 13.2865 13.6712 14 13.3479 13.731 14 13.3479 13.5697 13.7227 13.88 14 13.6494 13.8711 14 13.8894 14 
</DataArray>

</PointData>
<CellData Scalars="CellData">
<DataArray type="Float32" Name="radius" NumberOfComponents="1" format="ascii" >
0.023 0.023 0.008 0.008 0.008 0.008 0.008 0.008 0.008 0.008 0.008 0.008 0.008 0.008 0.008 0.008 0.008 0.008 0.008 0.008 0.008 0.008 0.008 0.008 0.008 0.008 0.023 0.008 0.008 0.008 0.008 0.008 0.008 0.008 0.008 0.008 0.008 0.008 0.008 0.008 0.008 0.008 0.008 0.023 0.008 0.008 0.008 0.008 0.008 0.008 0.008 0.008 0.008 0.008 0.008 0.008 0.008 0.008 0.008 0.008 0.008 0.008 0.008 0.008 0.008 0.008 0.008 0.008 0.023 0.008 0.008 0.008 0.008 0.008 0.008 0.008 0.008 0.008 0.008 0.008 0.008 0.008 0.008 0.008 0.008 0.008 0.008 0.023 0.008 0.008 0.008 0.008 0.008 0.008 0.008 0.008 0.008 0.008 0.008 0.008 0.008 0.023 0.008 0.008 0.008 0.008 0.008 0.008 0.008 0.008 0.008 0.008 0.008 0.008 0.008 0.008 0.008 0.008 0.008 0.008 0.008 0.023 0.008 0.008 0.008 0.008 0.008 0.008 0.008 0.008 0.008 0.008 0.008 0.008 0.008 0.023 0.008 0.008 0.008 0.008 0.008 0.008 0.008 0.008 0.008 0.008 0.008 0.023 0.008 0.008 0.008 0.008 0.008 0.008 0.008 0.008 0.008 0.008 0.008 0.023 0.008 0.008 0.008 0.008 0.008 0.008 0.008 0.008 0.008 0.008 0.008 0.008 0.023 0.008 0.008 0.008 0.008 0.008 0.008 0.008 0.008 0.008 0.008 0.008 0.008 0.023 0.008 0.008 0.008 0.008 0.008 0.008 0.008 0.008 0.008 0.008 0.008 0.023 0.008 0.008 0.008 0.008 0.008 0.008 0.008 0.008 0.008 0.008 0.008 0.008 0.008 0.023 0.008 0.008 0.008 0.008 0.008 0.008 0.008 0.008 0.008 0.008 0.008 0.008 0.023 0.008 0.008 0.008 0.008 0.023 0.008 0.023 0.008 0.008 0.023 0.008 0.008 0.008 0.008 0.023 0.008 0.008 0.008 0.008 0.023 0.023 0.008 
</DataArray>
<DataArray type="Float32" Name="subType" NumberOfComponents="1" format="ascii" >
1 2 3 3 3 3 3 3 3 3 3 3 3 3 3 3 3 3 3 3 3 3 3 3 3 3 2 3 3 3 3 3 3 3 3 3 3 3 3 3 3 3 3 2 3 3 3 3 3 3 3 3 3 3 3 3 3 3 3 3 3 3 3 3 3 3 3 3 2 3 3 3 3 3 3 3 3 3 3 3 3 3 3 3 3 3 3 2 3 3 3 3 3 3 3 3 3 3 3 3 3 2 3 3 3 3 3 3 3 3 3 3 3 3 3 3 3 3 3 3 3 2 3 3 3 3 3 3 3 3 3 3 3 3 3 2 3 3 3 3 3 3 3 3 3 3 3 2 3 3 3 3 3 3 3 3 3 3 3 2 3 3 3 3 3 3 3 3 3 3 3 3 2 3 3 3 3 3 3 3 3 3 3 3 3 2 3 3 3 3 3 3 3 3 3 3 3 2 3 3 3 3 3 3 3 3 3 3 3 3 3 2 3 3 3 3 3 3 3 3 3 3 3 3 2 3 3 3 3 2 3 2 3 3 2 3 3 3 3 2 3 3 3 3 2 2 3 
</DataArray>
<DataArray type="Float32" Name="creationTime" NumberOfComponents="1" format="ascii" >
0 4.13593 6.53744 6.76356 6.9991 7.24489 7.50185 7.77105 8.05372 8.35127 8.66536 8.99794 9.35131 9.72826 10.1322 10.5672 11.0384 11.5526 12.1183 12.747 13.4544 4.16102 4.29516 4.31719 4.53742 4.74815 4.95303 7.49432 7.75203 8.02492 8.31487 8.62416 8.95556 9.31248 9.69918 10.1211 10.5852 11.1011 11.6815 12.3452 13.1199 5.09448 5.22609 5.32139 7.72291 7.94902 8.18457 8.43035 8.68731 8.95651 9.23918 9.53673 9.85082 10.1834 10.5368 10.9137 11.3176 11.7526 12.2239 12.7381 13.3038 13.9325 5.45486 5.7286 5.74304 5.7772 6.00582 6.25626 6.56535 8.91358 9.1285 9.35109 9.58193 9.82164 10.071 10.3307 10.6016 10.885 11.1818 11.4934 11.8215 12.1678 12.5345 12.9241 13.3397 13.7851 6.77375 6.83736 9.35346 9.60523 9.871 10.1524 10.4514 10.7704 11.1121 11.4802 11.879 12.3141 12.7927 13.3247 13.9233 7.05325 9.36926 9.57761 9.79268 10.0149 10.2448 10.483 10.7299 10.9863 11.253 11.5309 11.8208 12.1238 12.4414 12.7748 13.1257 13.4962 13.8885 7.34411 7.6308 7.82992 10.2168 10.4398 10.6717 10.9133 11.1654 11.4289 11.705 11.9949 12.3001 12.6223 12.9634 13.3258 13.7124 8.03409 10.5502 10.802 11.0677 11.3491 11.6481 11.9671 12.3089 12.6769 13.0757 13.5108 13.9895 8.15433 10.6261 10.8677 11.1214 11.3884 11.6703 11.9688 12.2859 12.6242 12.9867 13.377 13.8 8.31752 10.6778 10.8952 11.1207 11.3549 11.5984 11.852 12.1167 12.3935 12.6834 12.9878 13.3082 13.6465 8.54379 10.917 11.1371 11.3656 11.6033 11.851 12.1093 12.3795 12.6625 12.9597 13.2725 13.6027 13.9523 8.80587 11.2399 11.4731 11.7169 11.9723 12.2405 12.5227 12.8207 13.1363 13.4715 13.8291 8.80587 8.9157 11.3026 11.5256 11.7575 11.9991 12.2511 12.5147 12.7908 13.0807 13.3859 13.708 8.9157 9.20198 9.33331 9.61316 12.1544 12.4122 12.685 12.975 13.2843 13.6157 13.9726 9.79799 10.1036 10.4179 10.6257 10.7076 10.9085 13.3607 13.5979 13.8464 11.196 11.3329 13.785 11.4849 13.9779 11.6814 11.9653 12.1673 12.2875 12.4337 12.5874 12.8245 13.056 13.1977 13.2865 13.3479 13.3479 13.6494 13.8894 
</DataArray>

</CellData>
<Points>
<DataArray type="Float32" Name="Coordinates" NumberOfComponents="3" format="ascii" >