<?xml version="1.0"?><VTKFile type="PolyData" version="0.1" byte_order="LittleEndian">
<PolyData>
<Piece NumberOfLines="23" NumberOfPoints="168">
<PointData Scalars=" PointData">
<DataArray type="Float32" Name="time" NumberOfComponents="1" format="ascii" >
0 0.364105 0.386762 0.50787 0.527747 0.726473 0.916515 1.10118 1.22862 1.34714 1.43295 1.55307 1.79931 1.81229 1.84301 2.04849 2.27344 2.55085 2.73776 2.79479 2.98827 3.24874 3.50528 3.68333 3.86578 3.9732 4.11891 4.32083 4.55453 4.65242 4.90742 5.02433 5.27329 5.43761 5.70913 5.98805 6.17239 6.24493 6.42293 6.67747 6.79859 6.93302 7 4.13593 4.35761 4.51038 4.6674 4.8289 4.99515 5.16644 5.34309 5.52543 5.71385 5.90878 6.11066 6.32003 6.53744 6.76356 6.9991 7 6.53744 6.92163 7 6.76356 7 6.9991 7 4.16102 4.54295 4.9704 5.45572 6.01704 6.68268 7 4.29516 4.67723 5.10518 5.59155 6.15487 6.82412 7 4.31719 4.6969 5.1163 5.58467 6.11495 6.72606 7 4.53742 4.91753 5.33837 5.8097 6.34533 6.96561 7 4.74815 5.12899 5.55244 6.02927 6.57489 7 4.95303 5.17568 5.33029 5.49022 5.65587 5.82766 6.00605 6.19158 6.38485 6.58652 6.79736 7 5.09448 5.47723 5.9077 6.3995 6.97307 7 5.22609 5.60547 6.02367 6.48954 7 5.32139 5.54308 5.69585 5.85286 6.01436 6.18062 6.35191 6.52855 6.7109 6.89932 7 5.45486 5.83949 6.27705 6.78444 7 5.7286 6.10694 6.52144 6.97974 7 5.74304 6.12391 6.54748 7 5.7772 6.16055 6.59323 7 6.00582 6.38994 6.82553 7 6.25626 6.63954 7 6.56535 6.78662 6.93863 7 6.77375 7 6.83736 7 
</DataArray>

</PointData>
<CellData Scalars="CellData">
<DataArray type="Float32" Name="radius" NumberOfComponents="1" format="ascii" >
0.023 0.023 0.008 0.008 0.008 0.008 0.008 0.008 0.008 0.008 0.023 0.008 0.008 0.023 0.008 0.008 0.008 0.008 0.008 0.008 0.023 0.008 0.023 
</DataArray>
<DataArray type="Float32" Name="subType" NumberOfComponents="1" format="ascii" >
1 2 3 3 3 3 3 3 3 3 2 3 3 2 3 3 3 3 3 3 2 3 2 
</DataArray>
<DataArray type="Float32" Name="creationTime" NumberOfComponents="1" format="ascii" >
0 4.13593 6.53744 6.76356 6.9991 4.16102 4.29516 4.31719 4.53742 4.74815 4.95303 5.09448 5.22609 5.32139 5.45486 5.7286 5.74304 5.7772 6.00582 6.25626 6.56535 6.77375 6.83736 
</DataArray>

</CellData>
<Points>
<DataArray type="Float32" Name="Coordinates" NumberOfComponents="3" format="ascii" >
0 0 -3 0.0207874 0.0239324 -3.9995 0.0237283 0.0244349 -4.06133 0.0408099 0.026005 -4.39112 0.0432946 0.0260931 -4.44516 0.0549358 0.0265045 -4.9843 0.0518665 0.0154431 -5.49716 0.046755 0.00744274 -5.99304 0.057443 0.00666962 -6.33369 0.0570981 0.00968426 -6.64961 0.0542557 0.0137881 -6.87763 0.0463892 0.0174754 -7.19593 0.0245618 0.0256255 -7.84503 0.0243141 0.0266182 -7.87914 0.0242817 0.0295629 -7.95978 0.00652898 0.0145903 -8.49734 0.0190836 0.0153424 -9.08283 0.0118775 0.0322836 -9.7999 -0.00515554 0.0435664 -10.2797 -0.00823787 0.0468769 -10.4257 -0.0266086 0.0557273 -10.9191 -0.047149 0.0208242 -11.5787 -0.065563 -0.0130256 -12.2238 -0.0603647 -0.0263302 -12.6694 -0.0515208 -0.0410963 -13.1238 -0.048495 -0.0227138 -13.3898 -0.0545217 -0.00346655 -13.7497 -0.0348136 -0.0404369 -14.2452 -0.0405832 -0.0344563 -14.8172 -0.0487291 -0.0407113 -15.0555 -0.0720379 -0.0633994 -15.6731 -0.0756207 -0.055382 -15.9551 -0.0809149 -0.0766185 -16.5526 -0.082155 -0.084164 -16.9449 -0.0723688 -0.0861977 -17.5893 -0.0823135 -0.125517 -18.2453 -0.0783093 -0.13399 -18.6769 -0.0710971 -0.130919 -18.8459 -0.0562956 -0.168435 -19.2579 -0.070996 -0.204418 -19.8451 -0.0760943 -0.219667 -20.1233 -0.0817512 -0.238838 -20.4308 -0.0838999 -0.24118 -20.5839 0.0207874 0.0239324 -3.9995 0.457754 0.408269 -4.1456 0.750941 0.662725 -4.242 1.06166 0.904612 -4.31231 1.32231 1.20762 -4.32817 1.59471 1.49112 -4.40184 1.85716 1.7846 -4.47247 2.13724 2.04995 -4.57802 2.42061 2.3285 -4.62403 2.71573 2.59366 -4.67492 3.02775 2.83878 -4.72549 3.38351 3.01487 -4.77478 3.74845 3.14952 -4.868 4.08202 3.23887 -5.06986 4.42761 3.34445 -5.24137 4.77125 3.44656 -5.41882 4.77232 3.4468 -5.41983 0.457754 0.408269 -4.1456 0.589386 0.383235 -5.13658 0.609876 0.374694 -5.32512 0.750941 0.662725 -4.242 0.467912 1.1619 -4.4938 1.06166 0.904612 -4.31231 1.06331 0.903123 -4.31341 0.0237283 0.0244349 -4.06133 -0.386349 0.864912 -4.41549 -1.00655 1.48788 -4.89221 -1.60273 2.13803 -5.36324 -2.28745 2.6197 -5.91019 -2.9973 2.87055 -6.56836 -3.35616 2.98999 -6.73984 0.0408099 0.026005 -4.39112 0.750318 -0.623225 -4.66516 1.48433 -1.29927 -4.72979 2.16094 -1.92741 -5.11404 2.69139 -2.50608 -5.73353 3.36965 -3.17254 -6.04304 3.52241 -3.33291 -6.11581 0.0432946 0.0260931 -4.44516 -0.842409 -0.0582433 -4.90169 -1.73154 -0.306859 -5.28591 -2.52722 -0.673227 -5.76828 -3.26171 -1.01385 -6.35522 -4.18994 -1.38361 -6.31449 -4.56221 -1.53293 -6.30586 0.0549358 0.0265045 -4.9843 0.539811 -0.798335 -4.69355 1.0918 -1.63208 -4.68038 1.45361 -2.56426 -4.69192 1.56443 -3.55258 -4.79658 2.07953 -4.19253 -5.36678 2.11299 -4.22563 -5.38632 0.0518665 0.0154431 -5.49716 -0.685542 -0.574903 -5.82537 -1.41553 -1.15971 -6.17907 -1.96699 -1.95644 -6.4263 -2.33145 -2.82834 -6.75336 -2.57774 -3.4508 -6.8995 0.046755 0.00744274 -5.99304 -0.512332 0.178101 -6.12831 -0.906159 0.213538 -6.18868 -1.29325 0.279318 -6.26505 -1.66654 0.374443 -6.37278 -2.0504 0.477726 -6.41733 -2.42191 0.623187 -6.44606 -2.79707 0.720699 -6.54475 -3.17319 0.804944 -6.65169 -3.53511 0.877714 -6.80571 -3.86332 0.948917 -7.02298 -4.17976 1.04916 -7.18113 0.057443 0.00666962 -6.33369 -0.870352 0.207329 -6.64822 -1.81807 0.302553 -6.95279 -2.76759 0.408319 -7.24813 -3.61319 0.380361 -7.78121 -3.65157 0.394879 -7.79407 0.0570981 0.00968426 -6.64961 0.790137 0.512801 -7.10735 1.51789 1.01306 -7.57653 2.2591 1.4715 -8.06686 2.53272 2.40148 -8.14526 0.0542557 0.0137881 -6.87763 0.0626486 0.577581 -7.08273 0.0907069 0.96872 -7.16162 0.156814 1.36228 -7.18886 0.231043 1.72051 -7.35061 0.317535 2.06504 -7.5345 0.388247 2.41409 -7.71661 0.501331 2.76332 -7.87552 0.579928 3.12786 -8.0202 0.63055 3.496 -8.16821 0.654565 3.6877 -8.24618 0.0463892 0.0174754 -7.19593 0.391849 0.922784 -7.44306 0.61758 1.86486 -7.69113 0.642834 2.84909 -7.8662 0.573283 3.22158 -7.86527 0.0245618 0.0256255 -7.84503 0.279952 0.963468 -8.08003 0.714049 1.85825 -8.18457 0.905714 2.78553 -8.50616 0.921771 2.82354 -8.51298 0.0243141 0.0266182 -7.87914 0.699405 0.666652 -8.24603 1.26125 1.3654 -8.68884 1.32953 2.04716 -9.34915 0.0242817 0.0295629 -7.95978 -0.359317 0.850138 -8.38346 -0.682347 1.64298 -8.90023 -0.992221 2.31064 -9.28342 0.00652898 0.0145903 -8.49734 -0.833604 0.455387 -8.81337 -1.73032 0.855213 -9.00323 -2.0546 0.961517 -9.13118 0.0190836 0.0153424 -9.08283 -0.369608 0.773185 -9.60685 -0.779095 1.33612 -10.0811 0.0118775 0.0322836 -9.7999 -0.231102 0.558902 -9.95363 -0.386623 0.916446 -10.0429 -0.422981 1.07072 -10.052 -0.00515554 0.0435664 -10.2797 0.0350266 0.614472 -10.471 -0.00823787 0.0468769 -10.4257 0.347823 0.264527 -10.5694 
</DataArray>
</Points>
<Lines>
<DataArray type="Int32" Name="connectivity" NumberOfComponents="1" format="ascii" >
0 1 2 3 4 5 6 7 8 9 10 11 12 13 14 15 16 17 18 19 20 21 22 23 24 25 26 27 28 29 30 31 32 33 34 35 36 37 38 39 40 41 42 43 44 45 46 47 48 49 50 51 52 53 54 55 56 57 58 59 60 61 62 63 64 65 66 67 68 69 70 71 72 73 74 75 76 77 78 79 80 81 82 83 84 85 86 87 88 89 90 91 92 93 94 95 96 97 98 99 100 101 102 103 104 105 106 107 108 109 110 111 112 113 114 115 116 117 118 119 120 121 122 123 124 125 126 127 128 129 130 131 132 133 134 135 136 137 138 139 140 141 142 143 144 145 146 147 148 149 150 151 152 153 154 155 156 157 158 159 160 161 162 163 164 165 166 167 
</DataArray>
<DataArray type="Int32" Name="offsets" NumberOfComponents="1" format="ascii" >
43 60 63 65 67 74 81 88 95 101 113 119 124 135 140 145 149 153 157 160 164 166 168 
</DataArray>

</Lines>
</Piece>
</PolyData>
</VTKFile>
