<?xml version="1.0"?><VTKFile type="PolyData" version="0.1" byte_order="LittleEndian">
<PolyData>
<Piece NumberOfLines="584" NumberOfPoints="5627">
<PointData Scalars=" PointData">
<DataArray type="Float32" Name="time" NumberOfComponents="1" format="ascii" >
0 0.364105 0.386762 0.50787 0.527747 0.726473 0.916515 1.10118 1.22862 1.34714 1.43295 1.55307 1.79931 1.81229 1.84301 2.04849 2.27344 2.55085 2.73776 2.79479 2.98827 3.24874 3.50528 3.68333 3.86578 3.9732 4.11891 4.32083 4.55453 4.65242 4.90742 5.02433 5.27329 5.43761 5.70913 5.98805 6.17239 6.24493 6.42293 6.67747 6.79859 6.93302 7.10676 7.35753 7.53579 7.6418 7.77071 7.90617 8.11498 8.31872 8.44339 8.52144 8.57542 8.84029 9.05099 9.35482 9.56195 9.77562 10.0795 10.2069 10.4153 10.6316 10.8862 11.0465 11.3675 11.5825 11.7109 11.847 12.0338 12.0979 12.1683 12.3713 12.4672 12.5771 12.7822 13.0919 13.1052 13.4016 13.5128 13.7506 13.8651 13.9842 14.096 14.2183 14.5044 14.6016 14.8147 14.9916 15.2612 15.6848 15.8778 16.2446 16.3528 16.6621 16.9559 17.2523 17.2736 17.6168 17.694 18.0528 18.2883 18.6747 19.0406 19.4277 19.7179 19.9182 20.0882 20.2986 20.6773 20.8038 21 4.13593 4.35761 4.51038 4.6674 4.8289 4.99515 5.16644 5.34309 5.52543 5.71385 5.90878 6.11066 6.32003 6.53744 6.76356 6.9991 7.24489 7.50185 7.77105 8.05372 8.35127 8.66536 8.99794 9.35131 9.72826 10.1322 10.5672 11.8284 13.4544 15.7462 19.664 21 6.53744 6.92163 7.3575 7.86113 8.45754 9.18883 10.1344 11.4743 13.7972 21 6.76356 7.15063 7.59755 8.12626 8.77356 9.6085 10.7864 12.805 21 6.9991 7.38012 7.80424 8.28246 8.83064 9.4728 10.248 11.2261 12.5526 14.6225 19.6194 21 7.24489 7.62745 8.05725 8.5476 9.11841 9.80136 10.6516 11.7785 13.4543 16.8027 21 7.50185 7.88181 8.3021 8.77231 9.3059 9.92268 10.6534 11.5501 12.7108 14.3592 17.2332 21 7.77105 8.15266 8.57893 9.06171 9.61831 10.2755 11.0777 12.1077 13.5485 15.9653 21 8.05372 8.43482 8.85923 9.33806 9.88737 10.5315 11.3103 12.2951 13.636 15.7468 21 8.35127 8.73407 9.16473 9.65695 10.2313 10.9208 11.7836 12.9369 14.6822 18.3903 21 8.66536 9.04661 9.47157 9.95157 10.503 11.151 11.9366 12.9344 14.3035 16.4967 21 8.99794 9.38046 9.81007 10.3 10.8701 11.5517 12.3994 13.5211 15.1833 18.4669 21 9.35131 9.73521 10.17 10.6712 11.2629 11.985 12.912 14.2081 16.3795 21 9.72826 10.1107 10.54 11.0294 11.5983 12.2778 13.1215 14.2348 15.8757 19.0614 21 10.1322 10.5148 10.9447 11.4352 12.0065 12.6903 13.542 14.6722 16.3564 19.7457 21 10.5672 10.9494 11.3782 11.8663 12.4329 13.1081 13.9437 15.0404 16.6397 19.6438 21 11.0384 11.4162 11.8286 12.2825 12.7875 13.3564 14.0078 14.7696 15.6872 16.8411 18.3967 20.7937 21 11.5526 11.9352 12.365 12.8553 13.426 14.1089 14.9588 16.0852 17.7597 21 12.1183 12.5017 12.9343 13.4308 14.0135 14.7184 15.6112 16.8295 18.7574 21 12.747 13.127 13.5476 14.0183 14.5528 15.1711 15.9045 16.8059 17.9759 19.6458 21 13.4544 13.8376 14.2695 14.7645 15.3442 16.0436 16.9254 18.1198 19.9786 21 14.2633 14.6456 15.0747 15.5634 16.1311 16.8084 17.6479 18.7526 20.3718 21 15.2075 15.5881 16.0108 16.486 17.0286 17.661 18.4189 19.3647 20.6236 21 16.3417 16.7211 17.1393 17.6052 18.1311 18.7347 19.4431 20.3005 21 17.7622 18.1455 18.5783 19.0751 19.6582 20.3641 21 19.664 20.0442 20.4654 20.9375 21 4.16102 4.54295 4.9704 5.45572 6.01704 6.68268 7.50048 8.56127 10.0735 12.7372 21 4.29516 4.67723 5.10518 5.59155 6.15487 6.82412 7.6486 8.72279 10.267 13.0503 21 4.31719 4.6969 5.1163 5.58467 6.11495 6.72606 7.44713 8.32664 9.45438 11.0281 13.652 21 4.53742 4.91753 5.33837 5.8097 6.34533 6.96561 7.7024 8.60986 9.79165 11.4892 14.5418 21 4.74815 5.12899 5.55244 6.02927 6.57489 7.21256 7.97975 8.94287 10.2376 12.2202 16.6297 21 4.95303 5.17568 5.33029 5.49022 5.65587 5.82766 6.00605 6.19158 6.38485 6.58652 6.79736 7.01824 7.25017 7.49432 7.75203 8.02492 8.31487 8.62416 8.95556 9.31248 10.3474 11.6815 13.5619 16.7765 21 7.49432 7.87995 8.32132 8.83727 9.45826 10.2383 11.2879 12.8985 16.5112 21 7.75203 8.13061 8.54595 9.00597 9.52145 10.1076 10.787 11.5949 12.5917 13.8934 15.7731 19.2043 21 8.02492 8.40614 8.83098 9.31073 9.86171 10.5088 11.2929 12.2879 13.6508 15.8255 21 8.31487 8.69962 9.13763 9.64603 10.2519 11.0016 11.9854 13.4198 16.1121 21 8.62416 9.00717 9.43861 9.93252 10.5101 11.2056 12.0799 13.2579 15.0706 19.1834 21 8.95556 9.33764 9.76562 10.2521 10.8155 11.485 12.3099 13.3849 14.9312 17.7223 21 9.31248 9.69404 10.1201 10.6025 11.1584 11.8142 12.6141 13.6394 15.0696 17.4521 21 9.69918 10.0822 10.5138 11.0081 11.5864 12.2833 13.1602 14.3438 16.1721 20.388 21 10.1211 10.5044 10.9371 11.4337 12.0164 12.7216 13.6148 14.834 16.7647 21 10.5852 10.9658 11.3882 11.8629 12.4046 13.0354 13.7906 14.7314 15.9799 17.8412 21 11.1011 11.4863 11.9262 12.4389 13.0533 13.8201 14.8405 16.3705 19.515 21 11.6815 12.0608 12.4788 12.9441 13.4689 14.0707 14.7761 15.6283 16.7047 18.1675 20.4604 21 12.3452 12.7273 13.1555 13.6424 14.2067 14.8778 15.7057 16.7867 18.3474 21 13.1199 13.5016 13.9282 14.4117 14.9696 15.629 16.4355 17.4737 18.9334 21 14.0506 14.4361 14.8768 15.3913 16.0095 16.7837 17.8206 19.3955 21 15.2161 15.5971 16.0214 16.4999 17.0485 17.6915 18.4681 19.4489 20.7812 21 16.7765 17.1571 17.5794 18.0538 18.5949 19.2248 19.9783 20.9162 21 19.1456 19.5255 19.9456 20.4153 20.9482 21 5.09448 5.47723 5.9077 6.3995 6.97307 7.66112 8.52105 9.66837 11.3976 15.0183 21 5.22609 5.60547 6.02367 6.48954 7.01537 7.6189 8.32715 9.18425 10.2699 11.752 14.0996 20.2045 21 5.32139 5.54308 5.69585 5.85286 6.01436 6.18062 6.35191 6.52855 6.7109 6.89932 7.09424 7.29613 7.50549 7.72291 7.94902 8.18457 8.43035 8.68731 8.95651 9.23918 9.53673 9.85082 10.1834 10.5368 10.9137 11.3176 11.7526 13.0139 14.6399 16.9317 20.8494 21 7.72291 8.10522 8.53406 9.02237 9.58931 10.2652 11.102 12.2012 13.8069 16.8376 21 7.94902 8.33009 8.75435 9.23288 9.78163 10.4248 11.2018 12.1833 13.517 15.6074 20.76 21 8.18457 8.56613 8.99222 9.47464 10.0306 10.6865 11.4865 12.5122 13.9432 16.3282 21 8.43035 8.81013 9.22977 9.69862 10.2298 10.8424 11.566 12.45 13.5864 15.1793 17.8654 21 8.68731 9.07188 9.50917 10.016 10.6186 11.3621 12.3329 13.7344 16.2907 21 8.95651 9.33699 9.75911 10.2332 10.7737 11.4025 12.154 13.0882 14.3233 16.1506 19.7414 21 9.23918 9.62292 10.0571 10.557 11.1462 11.8635 12.7807 14.0543 16.1522 21 9.53673 9.91669 10.3369 10.8071 11.3405 11.957 12.6874 13.5832 14.7425 16.3874 19.2492 21 9.85082 10.2326 10.6596 11.1438 11.7032 12.3653 13.1765 14.2243 15.706 18.2609 21 10.1834 10.5637 10.985 11.4574 11.9949 12.6185 13.361 14.2787 15.4808 17.2269 20.4684 21 10.5368 10.9184 11.3446 11.8273 12.3839 13.0408 13.8427 14.8721 16.3114 18.7234 21 10.9137 11.2971 11.7297 12.2262 12.8088 13.5138 14.4064 15.6245 17.5519 21 11.3176 11.6974 12.117 12.5857 13.1167 13.729 14.452 15.335 16.4694 18.058 20.7299 21 11.7526 12.1332 12.5556 13.0302 13.5718 14.2024 14.9572 15.8974 17.1446 19.0026 21 12.2239 12.6065 13.0363 13.5267 14.0976 14.7808 15.6314 16.7592 18.4372 21 12.7381 13.1205 13.5499 14.0393 14.6083 15.2879 16.1317 17.2455 18.8876 21 13.3038 13.685 14.11 14.5899 15.1412 15.789 16.5742 17.5713 18.9387 21 13.9325 14.3192 14.7648 15.2903 15.9311 16.7522 17.8964 19.7984 21 14.6399 15.0211 15.4458 15.9254 16.476 17.1225 17.9054 18.8981 20.2561 21 15.4487 15.8293 16.2518 16.7265 17.2683 17.8992 18.6546 19.5959 20.8454 21 16.3929 16.7747 17.2013 17.6849 18.2429 18.9027 19.7098 20.7492 21 17.5272 17.9097 18.3393 18.8294 19.3995 20.0813 20.9293 21 18.9476 19.3277 19.7483 20.2192 20.754 21 20.8494 21 5.45486 5.83949 6.27705 6.78444 7.38827 8.13402 9.10957 10.523 13.1276 21 5.7286 6.10694 6.52144 6.97974 7.49221 8.07339 8.7446 9.53895 10.512 11.7682 13.5432 16.5974 21 5.74304 6.12391 6.54748 7.02455 7.57061 8.20905 8.9776 9.94327 11.2434 13.2405 17.7398 21 5.7772 6.16055 6.59323 7.08985 7.67265 8.37794 9.27129 10.491 12.4229 17.4486 21 6.00582 6.38994 6.82553 7.32857 7.92381 8.65283 9.59375 10.9226 13.2063 21 6.25626 6.63954 7.07197 7.56804 8.14977 8.85305 9.74247 10.9534 12.8599 17.6629 21 6.56535 6.78662 6.93863 7.09443 7.25423 7.41824 7.58668 7.7598 7.93786 8.12117 8.31003 8.50479 8.70584 8.91358 9.1285 9.35109 9.58193 9.82164 10.071 10.3307 10.6016 10.885 11.1818 11.4934 11.8215 12.1678 12.5345 12.9241 13.3397 13.7851 14 14.2647 15.6553 17.4481 19.9749 21 8.91358 9.29532 9.72206 10.2058 10.7643 11.4248 12.2331 13.2751 14.7435 17.2523 21 9.1285 9.50898 9.93115 10.4053 10.946 11.575 12.327 13.2621 14.499 16.3308 19.9422 21 9.35109 9.73276 10.1593 10.6425 11.2001 11.8589 12.6641 13.7 15.1542 17.6155 21 9.58193 9.96181 10.3818 10.8514 11.3839 11.9988 12.7264 13.6174 14.7671 16.3902 19.1769 21 9.82164 10.205 10.6375 11.1339 11.7162 12.4206 13.3121 14.5278 16.4479 21 10.071 10.4538 10.8844 11.3766 11.951 12.6405 13.5032 14.6564 16.4014 20.1079 21 10.3307 10.7123 11.1386 11.6214 12.1781 12.8354 13.6379 14.6684 16.1105 18.5315 21 10.6016 10.9804 11.3965 11.8579 12.3759 12.9663 13.6526 14.4721 15.4895 16.8315 18.8081 21 10.885 11.2663 11.6916 12.1723 12.725 13.3752 14.1648 15.1703 16.5564 18.8004 21 11.1818 11.5666 12.0048 12.5138 13.1207 13.8725 14.8609 16.3068 19.0489 21 11.4934 11.8755 12.3034 12.7896 13.3526 14.0214 14.8449 15.9172 17.4569 20.2229 21 11.8215 12.2062 12.6442 13.1524 13.758 14.5071 15.4898 16.9211 19.6005 21 12.1678 12.5466 12.9629 13.4248 13.9437 14.5354 15.224 16.0474 17.0716 18.4274 20.438 21 12.5345 12.9192 13.3572 13.8656 14.4713 15.2209 16.2044 17.6379 20.3264 21 12.9241 13.3092 13.7483 14.2592 14.8701 15.6298 16.6348 18.1241 21 13.3397 13.7209 14.1454 14.6245 15.1743 15.8193 16.5996 17.5874 18.9346 21 13.7851 14.1727 14.6217 15.1554 15.8132 16.671 17.906 20.1419 21 14.2647 14.6484 15.0827 15.5828 16.1723 16.8903 17.8089 19.0857 21 14.7843 15.1648 15.5872 16.0616 16.603 17.2332 17.9872 18.9259 20.1703 21 15.3512 15.7336 16.1628 16.6517 17.2199 17.898 18.739 19.8468 21 15.9749 16.3577 16.7881 17.2799 17.8534 18.5413 19.401 20.5478 21 16.6681 17.0478 17.4674 17.936 18.4669 19.0789 19.8016 20.6839 21 17.4481 17.8303 18.2586 18.7459 19.311 19.9835 20.8139 21 18.3399 18.7214 19.1474 19.6295 20.185 20.8401 21 19.3809 19.7604 20.1788 20.6453 21 20.6315 21 6.77375 7.15766 7.59246 8.09375 8.68559 9.40806 10.3357 11.6332 13.8095 21 6.83736 7.05985 7.21414 7.37357 7.53851 7.70933 7.88649 8.07045 8.26178 8.46109 8.66906 8.88649 9.11428 9.35346 9.60523 9.871 10.1524 10.4514 10.7704 11.1121 11.4802 12.5474 13.9233 15.8625 19.1775 21 9.35346 9.7348 10.1601 10.6408 11.1935 11.8436 12.6332 13.6387 15.0246 17.2683 21 9.60523 9.99143 10.4349 10.9558 11.5869 12.3875 13.4838 15.232 19.9516 21 9.871 10.2529 10.6803 11.1655 11.7266 12.3918 13.2087 14.2679 15.7763 18.426 21 10.1524 10.5357 10.9682 11.4644 12.0464 12.7502 13.6406 14.8539 16.7668 21 10.4514 10.8316 11.2526 11.7244 12.2607 12.8823 13.6212 14.5326 15.7222 17.4381 20.5606 21 10.7704 11.1533 11.5843 12.0773 12.6532 13.3456 14.2139 15.3789 17.1557 21 11.1121 11.4972 11.9362 12.4468 13.057 13.8155 14.818 16.3005 19.2089 21 11.4802 11.8611 12.2846 12.7615 13.3072 13.9451 14.7128 15.6767 16.9731 18.9603 21 11.879 12.2605 12.6866 13.1689 13.7246 14.3802 15.1796 16.2041 17.6323 20.0083 21 12.3141 12.6956 13.1214 13.6032 14.158 14.812 15.6083 16.627 18.0422 20.3765 21 12.7927 13.1722 13.5906 14.057 14.5837 15.1887 15.8995 16.761 17.8547 19.3542 21 13.3247 13.7057 14.1296 14.6076 15.1552 15.7964 16.5699 17.5448 18.8645 20.9154 21 13.9233 14.3075 14.7433 15.2469 15.8433 16.5745 17.5199 18.8594 21 14.6077 14.9944 15.4397 15.9649 16.6047 17.4237 18.5632 20.4491 21 15.4066 15.7877 16.2122 16.691 17.2403 17.8844 18.6632 19.648 20.9889 21 16.3664 16.7505 17.1863 17.6896 18.2855 19.0158 19.9592 21 17.5683 17.9526 18.389 18.8938 19.4926 20.2283 21 19.1775 19.5634 20.0058 20.524 21 7.05325 7.27427 7.42579 7.58083 7.73957 7.90218 8.06886 8.23981 8.41526 8.59545 8.78064 8.97113 9.16723 9.36926 9.57761 9.79268 10.0149 10.2448 10.483 10.7299 10.9863 11.253 11.5309 11.8208 12.1238 12.4414 12.7748 13.1257 13.4962 13.8885 14.3053 14.7499 15.2263 15.7393 17.227 19.1448 21 9.36926 9.75067 10.1762 10.6574 11.211 11.8629 12.6555 13.6668 15.0656 17.3487 21 9.57761 9.95851 10.3822 10.8594 11.4059 12.045 12.8147 13.7825 15.0871 17.0965 21 9.79268 10.1759 10.6082 11.1039 11.685 12.387 13.274 14.4796 16.3704 21 10.0149 10.3993 10.8357 11.3405 11.9393 12.6751 13.6301 14.9927 17.3987 21 10.2448 10.6251 11.0464 11.5187 12.0561 12.6795 13.4216 14.3386 15.5394 17.2821 20.5103 21 10.483 10.869 11.3119 11.8314 12.4597 13.2546 14.3377 16.0457 20.3872 21 10.7299 11.1115 11.5377 12.0203 12.5767 13.2333 14.0347 15.063 16.5 18.9042 21 10.9863 11.3686 11.7975 12.2858 12.8527 13.5285 14.3652 15.4642 17.0692 20.0976 21 11.253 11.6356 12.0655 12.5561 13.1273 13.8109 14.6625 15.7922 17.4752 20.8587 21 11.5309 11.9107 12.3307 12.8002 13.3325 13.9471 14.6741 15.5641 16.7119 18.3308 21 11.8208 12.2028 12.6306 13.1167 13.6796 14.348 15.1708 16.2418 17.7783 20.532 21 12.1238 12.5039 12.9243 13.3949 13.9291 14.5469 15.2796 16.1796 17.3467 19.01 21 12.4414 12.8244 13.256 13.7501 14.3282 15.0246 15.9006 17.0823 18.9053 21 12.7748 13.1521 13.563 14.0141 14.5142 15.075 15.7135 16.4547 17.338 18.4314 19.8668 21 13.1257 13.5088 13.9406 14.4353 15.0144 15.7128 16.5926 17.7825 19.6286 21 13.4962 13.8753 14.2926 14.7567 15.2793 15.8775 16.5766 17.4181 18.4749 19.8968 21 13.8885 14.2731 14.7106 15.2178 15.8214 16.5666 17.5409 18.9514 21 14.3053 14.6857 15.1079 15.5819 16.1224 16.7511 17.5025 18.4365 19.6713 21 14.7499 15.1306 15.5537 16.0298 16.574 17.2092 17.9721 18.9273 20.2053 21 15.2263 15.6077 16.0335 16.5152 17.0697 17.7232 18.5188 19.5359 20.9475 21 15.7393 16.1168 16.5281 16.9799 17.4812 18.0441 18.6858 19.4321 20.324 21 16.2952 16.6769 17.1037 17.5874 18.1458 18.8061 19.6141 20.6555 21 16.9017 17.2857 17.7209 18.223 18.8165 19.5422 20.4762 21 17.5689 17.9515 18.3814 18.872 19.4433 20.1271 20.9789 21 18.3104 18.6919 19.1179 19.6 20.1554 20.8104 21 19.1448 19.5285 19.9622 20.4612 21 20.0988 20.4825 20.9164 21 7.34411 7.72628 8.15463 8.64187 9.2068 9.879 10.709 11.7942 13.3653 16.2539 21 7.6308 8.01095 8.43188 8.90341 9.4394 10.0603 10.7982 11.7076 12.8932 14.5998 17.6867 21 7.82992 8.05149 8.20406 8.36074 8.52178 8.68743 8.85794 9.03363 9.2148 9.40182 9.59507 9.79499 10.0021 10.2168 10.4398 10.6717 10.9133 11.1654 11.4289 11.705 11.9949 12.3001 12.6223 12.9634 13.3258 13.7124 14.1267 14.5728 15.8664 17.5341 19.8847 21 10.2168 10.5988 11.0265 11.5124 12.0747 12.7422 13.5634 14.631 16.1595 18.8832 21 10.4398 10.8187 11.2351 11.6974 12.2168 12.8095 13.4998 14.326 15.3553 16.7211 18.7569 21 10.6717 11.0517 11.4721 11.9425 12.4764 13.0938 13.8257 14.7243 15.8888 17.5458 20.4504 21 10.9133 11.2937 11.7156 12.1893 12.7291 13.3566 14.106 15.0362 16.2633 18.0707 21 11.1654 11.544 11.9595 12.4198 12.9359 13.523 14.2039 15.0144 16.0157 17.3262 19.2269 21 11.4289 11.8104 12.2362 12.7179 13.2726 13.9264 14.7224 15.7404 17.1539 19.4833 21 11.705 12.089 12.5241 13.0261 13.6192 14.3441 15.2768 16.586 18.8019 21 11.9949 12.3739 12.7907 13.2536 13.7743 14.3691 15.0627 15.8947 16.9344 18.3211 20.4101 21 12.3001 12.6802 13.1008 13.5716 14.1063 14.7251 15.4593 16.362 17.5345 19.2103 21 12.6223 13.0077 13.4482 13.9622 14.5793 15.3514 16.3836 17.9456 21 12.9634 13.3445 13.7691 14.2483 14.7983 15.4436 16.2245 17.2133 18.5629 20.6987 21 13.3258 13.7099 14.1453 14.6479 15.2424 15.9699 16.9077 18.2293 20.4874 21 13.7124 14.092 14.511 14.9786 15.5074 16.116 16.8327 17.7047 18.8182 20.3604 21 14.1267 14.5132 14.9582 15.4824 16.1203 16.9352 18.065 19.9189 21 14.5728 14.9617 15.4156 15.9608 16.6435 17.5574 18.9442 21 15.0562 15.4354 15.8531 16.318 16.842 17.4424 18.1454 18.9935 20.0624 21 15.5836 15.9692 16.4106 16.9267 17.548 18.3285 19.3793 20.9933 21 16.1638 16.5508 16.9978 17.5265 18.1738 19.0088 20.1869 21 16.8085 17.1886 17.6091 18.0798 18.6142 19.2325 19.9658 20.867 21 17.5341 17.9202 18.3634 18.8835 19.5129 20.3102 21 18.3637 18.7453 19.1716 19.6544 20.2112 20.8685 21 19.3321 19.7118 20.1312 20.5994 21 20.4954 20.8779 21 8.03409 8.25657 8.41086 8.5703 8.73523 8.90606 9.08321 9.26718 9.45851 9.65782 9.86579 10.0832 10.311 10.5502 10.802 11.0677 11.3491 11.6481 11.9671 12.3089 12.6769 13.7442 15.12 17.0592 20.3743 21 10.5502 10.9309 11.3539 11.8298 12.3736 13.0082 13.77 14.7231 15.9968 17.9234 21 10.802 11.1816 11.6006 12.0681 12.5969 13.2055 13.9223 14.7943 15.9079 17.4502 19.976 21 11.0677 11.4507 11.8822 12.3761 12.9537 13.6492 14.5235 15.7016 17.5144 21 11.3491 11.7307 12.1568 12.6393 13.1954 13.8516 14.652 15.6786 17.1116 19.503 21 11.6481 12.0311 12.4623 12.9557 13.5323 14.2259 15.0967 16.2669 18.0583 21 11.9671 12.3475 12.7693 13.2428 13.7822 14.409 15.1572 16.0852 17.3078 19.1041 21 12.3089 12.6908 13.1184 13.6041 14.166 14.8327 15.6524 16.7172 18.2387 20.9366 21 12.6769 13.0583 13.4837 13.9646 14.5176 15.1685 15.9593 16.9671 18.3581 20.6174 21 13.0757 13.4614 13.903 14.4194 15.0413 15.8232 16.877 18.4995 21 13.5108 13.8943 14.3275 14.8253 15.4103 16.1199 17.0216 18.2599 20.2478 21 13.9895 14.3709 14.7963 15.2775 15.831 16.4826 17.2747 18.2852 19.6821 21 14.5214 14.9025 15.327 15.806 16.3557 17.0004 17.7802 18.767 20.112 21 15.12 15.5037 15.9374 16.4364 17.0237 17.7376 18.6479 19.9058 21 15.8044 16.1858 16.6113 17.0924 17.6459 18.2975 19.0896 20.0999 21 16.6034 16.9838 17.4057 17.8793 18.419 19.0464 19.7954 20.7251 21 17.5631 17.9445 18.37 18.8513 19.405 20.057 20.8498 21 18.765 19.1483 19.5808 20.077 20.6589 21 20.3743 20.7587 21 8.15433 8.37652 8.53024 8.68877 8.85241 9.02151 9.19644 9.37762 9.56551 9.76063 9.96355 10.1749 10.3955 10.6261 10.8677 11.1214 11.3884 11.6703 11.9688 12.2859 12.6242 12.9867 13.377 14.5089 15.9682 18.0249 21 10.6261 11.0053 11.4228 11.8872 12.4104 13.0096 13.7105 14.555 15.6173 17.0504 19.2617 21 10.8677 11.2507 11.6822 12.1762 12.754 13.4499 14.3249 15.5045 17.3215 21 11.1214 11.5011 11.9204 12.3885 12.9183 13.5287 14.2484 15.1257 16.2491 17.8133 20.4069 21 11.3884 11.7717 12.204 12.6999 13.2813 13.984 14.8723 16.0807 17.9796 21 11.6703 12.0526 12.4815 12.9698 13.5368 14.2127 15.0497 16.1493 17.7557 20.7899 21 11.9688 12.3512 12.7803 13.2693 13.8375 14.5158 15.357 16.4654 18.0938 21 12.2859 12.6647 13.081 13.5428 14.0615 14.6531 15.3414 16.1642 17.1875 18.5414 20.5472 21 12.6242 13.0038 13.4228 13.8904 14.4193 15.0279 15.7449 16.6172 17.7313 19.2748 21 12.9867 13.3755 13.8294 14.3745 15.0571 15.9707 17.3565 20.3286 21 13.377 13.7609 14.1955 14.6964 15.2874 16.0082 16.9326 18.2225 20.3737 21 13.8 14.1834 14.6163 15.1135 15.6974 16.4046 17.3019 18.5303 20.4883 21 14.2614 14.6444 15.0755 15.5687 16.1449 16.838 17.7075 18.8752 20.6594 21 14.7691 15.1525 15.5854 16.0824 16.666 17.3728 18.2692 19.4955 21 15.3333 15.7138 16.1362 16.6106 17.1519 17.782 18.5359 19.4744 20.7183 21 15.9682 16.3517 16.785 17.2831 17.8686 18.579 19.4825 20.7248 21 16.6941 17.0801 17.5231 18.0428 18.6715 19.4672 20.5521 21 17.5414 17.9229 18.3489 18.8309 19.3861 20.0407 20.8383 21 18.5593 18.9381 19.3543 19.816 20.3345 20.9257 21 19.8341 20.2171 20.6484 21 8.31752 8.53889 8.69107 8.84716 9.00735 9.17187 9.34097 9.51489 9.69393 9.8784 10.0686 10.265 10.4679 10.6778 10.8952 11.1207 11.3549 11.5984 11.852 12.1167 12.3935 12.6834 12.9878 13.3082 13.6465 14.0046 14.3852 14.7911 15.2261 15.6946 17.0528 18.8039 21 10.6778 11.0594 11.4856 11.9681 12.5243 13.1807 13.9816 15.0089 16.4436 18.8407 21 10.8952 11.2747 11.6934 12.1601 12.6875 13.2938 14 14.8634 15.9612 17.47 19.8965 21 11.1207 11.5035 11.9339 12.4258 12.9993 13.6874 14.5474 15.6949 17.4246 21 11.3549 11.7401 12.18 12.6927 13.3072 14.0739 15.0943 16.6244 19.7693 21 11.5984 11.9788 12.4008 12.8747 13.4148 14.0429 14.7932 15.7252 16.9558 18.772 21 11.852 12.2318 12.6512 13.1196 13.6501 14.2614 14.983 15.8632 16.9924 18.5694 21 12.1167 12.4971 12.9191 13.3927 13.9326 14.5601 15.3095 16.2398 17.467 19.2747 21 12.3935 12.7748 13.2 13.6806 14.2332 14.8831 15.6723 16.6769 18.061 20.299 21 12.6834 13.0656 13.4941 13.9817 14.5472 15.2206 16.0527 17.1423 18.7241 21 12.9878 13.369 13.7941 14.2742 14.826 15.4745 16.261 17.2606 18.6336 20.8383 21 13.3082 13.688 14.1077 14.5766 15.1078 15.7206 16.4446 17.3291 18.4665 20.0618 21 13.6465 14.028 14.4541 14.9365 15.4924 16.1483 16.9482 17.9736 19.4042 21 14.0046 14.3851 14.8074 15.2818 15.8229 16.4527 17.206 18.1434 19.385 21 14.3852 14.7657 15.1879 15.6623 16.2033 16.8329 17.5859 18.5229 19.7635 21 14.7911 15.1761 15.6147 16.1246 16.7333 17.4887 18.4847 19.9502 21 15.2261 15.6077 16.0338 16.5164 17.0725 17.7288 18.5295 19.5565 20.9906 21 15.6946 16.0744 16.4942 16.9634 17.4952 18.1089 18.8344 19.7217 20.8643 21 16.2021 16.5864 17.0226 17.527 18.125 18.8593 19.811 21 16.7558 17.1381 17.5669 18.0552 18.622 19.2975 20.1338 21 17.365 17.7493 18.1854 18.6897 19.2873 20.0208 20.971 21 18.0421 18.4277 18.8691 19.3852 20.0064 20.7869 21 18.8039 19.1856 19.6122 20.0957 20.6536 21 19.675 20.0553 20.4767 20.9494 21 20.6918 21 8.54379 8.76526 8.91763 9.07401 9.23461 9.39968 9.56946 9.74424 9.92432 10.11 10.3017 10.4998 10.7047 10.917 11.1371 11.3656 11.6033 11.851 12.1093 12.3795 12.6625 12.9597 13.2725 13.6027 13.9523 14.3238 14.7201 15.1447 15.602 16.9279 18.6373 21 10.917 11.2984 11.7242 12.206 12.7607 13.4145 14.2106 15.2286 16.6424 18.9724 21 11.1371 11.5212 11.9571 12.4607 13.057 13.788 14.7331 16.072 18.391 21 11.3656 11.7507 12.1898 12.7006 13.3114 14.0708 15.0753 16.563 19.4963 21 11.6033 11.9876 12.4237 12.9278 13.5253 14.2585 15.2082 16.5578 18.916 21 11.851 12.2333 12.6624 13.1511 13.7187 14.396 15.2354 16.3399 17.9587 21 12.1093 12.4938 12.9307 13.4366 14.0376 14.7777 15.7414 17.1255 19.6131 21 12.3795 12.7613 13.1882 13.6725 14.2319 14.8939 15.7052 16.7529 18.2346 20.7895 21 12.6625 13.0479 13.4882 14 14.6158 15.3855 16.4125 17.9609 21 12.9597 13.3446 13.7832 14.293 14.9017 15.657 16.6526 18.1173 20.9432 21 13.2725 13.6541 14.0802 14.5628 15.1191 15.7756 16.5766 17.6044 19.0401 21 13.6027 13.9856 14.4167 14.9099 15.4862 16.1793 17.049 18.217 20.002 21 13.9523 14.3338 14.7595 15.2411 15.7955 16.4488 17.244 18.2603 19.6702 21 14.3238 14.7035 15.1227 15.5908 16.1206 16.7309 17.4505 18.3275 19.4504 21 14.7201 15.1024 15.5312 16.0193 16.586 17.2614 18.0973 19.1946 20.7955 21 15.1447 15.5265 15.9537 16.4383 16.9984 17.6617 18.4753 19.5278 21 15.602 15.9811 16.3984 16.8623 17.3846 17.9823 18.6807 19.5209 20.5754 21 16.0975 16.4818 16.9184 17.4236 18.0231 18.7604 19.7182 21 16.638 17.0224 17.459 17.9642 18.5637 19.3011 20.2592 21 17.2327 17.6139 18.0386 18.518 19.0684 19.7145 20.4967 21 17.8936 18.2732 18.6921 19.1596 19.6882 20.2964 21 18.6373 19.0186 19.4438 19.9241 20.4763 21 19.4876 19.868 20.2899 20.7635 21 20.4803 20.8629 21 8.80587 9.02779 9.18101 9.33874 9.50124 9.66883 9.84182 10.0206 10.2055 10.397 10.5957 10.8019 11.0165 11.2399 11.4731 11.7169 11.9723 12.2405 12.5227 12.8207 13.1363 13.4715 13.8291 14.2123 14.625 15.8216 17.3642 19.5384 21 11.2399 11.6205 12.0428 12.5173 13.0587 13.689 14.4431 15.3821 16.6269 18.4788 21 11.4731 11.8599 12.3057 12.8319 13.474 14.2978 15.4487 17.3728 21 11.7169 12.1001 12.5322 13.0275 13.6078 14.3083 15.1924 16.3918 18.2646 21 11.9723 12.3527 12.7744 13.2477 13.7868 14.4131 15.1603 16.0866 17.3058 19.0936 21 12.2405 12.621 13.0434 13.5181 14.0597 14.6903 15.4452 16.3855 17.6329 19.4916 21 12.5227 12.9018 13.3191 13.7829 14.3051 14.9026 15.6006 16.4401 17.4934 18.908 21 12.8207 13.2042 13.6375 14.1353 14.7205 15.4302 16.3323 17.5715 19.562 21 13.1363 13.5249 13.9778 14.5208 15.1985 16.1009 17.4552 20.2485 21 13.4715 13.8529 14.2785 14.7598 15.3136 15.9658 16.759 17.7715 19.173 21 13.8291 14.208 14.6245 15.0868 15.6062 16.1991 16.8895 17.716 18.7458 20.1126 21 14.2123 14.5965 15.0321 15.5353 16.1309 16.8607 17.803 19.1352 21 14.625 15.006 15.4298 15.9076 16.4549 17.0954 17.8678 18.8406 20.1558 21 15.0721 15.4554 15.888 16.3844 16.9667 17.6712 18.5629 19.7788 21 15.5599 15.9399 16.3602 16.8304 17.364 17.9807 18.7115 19.6081 20.7688 21 16.0966 16.4788 16.907 17.3941 17.9587 18.6304 19.4593 20.5424 21 16.693 17.0761 17.5079 18.0024 18.5813 19.2792 20.158 21 17.3642 17.7497 18.1904 18.7049 19.323 20.097 21 18.1316 18.5108 18.9283 19.3928 19.9163 20.5158 21 19.0274 19.4091 19.8358 20.3196 20.8781 21 20.1034 20.485 20.911 21 8.80587 9.18645 9.60898 10.0839 10.6259 11.2573 12.0135 12.9562 14.2086 16.08 19.8799 21 8.9157 9.13727 9.28983 9.44652 9.60756 9.77321 9.94372 10.1194 10.3006 10.4876 10.6809 10.8808 11.0878 11.3026 11.5256 11.7575 11.9991 12.2511 12.5147 12.7908 13.0807 13.3859 13.708 14.0491 14.4116 14.7982 15.2124 15.6586 16.9522 18.6199 20.9704 21 11.3026 11.6903 12.1399 12.6747 13.335 14.1982 15.4473 17.7408 21 11.5256 11.9074 12.3348 12.8197 13.3805 14.0451 14.8609 15.9177 17.4207 20.0508 21 11.7575 12.1404 12.5714 13.0645 13.6404 14.3328 15.2011 16.3663 18.1436 21 11.9991 12.3807 12.8073 13.2906 13.8483 14.5074 15.3132 16.3501 17.8067 20.276 21 12.2511 12.631 13.0508 13.5202 14.0522 14.6662 15.3923 16.2806 17.4252 19.0367 21 12.5147 12.8956 13.3192 13.7963 14.3424 14.981 15.7498 16.716 18.0172 20.0172 21 12.7908 13.1728 13.6004 14.0862 14.6483 15.3155 16.136 17.2024 18.7278 21 13.0807 13.4598 13.8769 14.3406 14.8626 15.4596 16.1569 16.9951 18.0461 19.4559 21 13.3859 13.7672 14.1923 14.6726 15.2247 15.8738 16.6613 17.6629 19.0402 21 13.708 14.0884 14.5101 14.9832 15.5221 16.1481 16.8947 17.8199 19.037 20.8194 21 14.0491 14.4312 14.859 15.3452 15.9082 16.5768 17.4001 18.4718 20.0102 21 14.4116 14.7919 15.2136 15.6868 16.2257 16.8516 17.5983 18.5235 19.7406 21 14.7982 15.1762 15.5896 16.0457 16.5543 17.129 17.7899 18.5671 19.5107 20.712 21 15.2124 15.593 16.0155 16.4902 17.0319 17.6628 18.418 19.359 20.6079 21 15.6586 16.0371 16.4523 16.9121 17.427 18.0123 18.6903 19.4959 20.4885 21 16.142 16.5257 16.96 17.4601 18.0497 18.7677 19.6865 20.9635 21 16.6693 17.0474 17.4609 17.9172 18.4261 19.0015 19.6632 20.442 21 17.2495 17.6306 18.0547 18.5331 19.0814 19.7239 20.4997 21 17.8943 18.28 18.7216 19.2381 19.8602 20.6426 21 18.6199 19.0032 19.4358 19.9322 20.5146 21 19.4495 19.8313 20.2583 20.7427 21 20.4179 20.7991 21 8.9157 9.29742 9.72411 10.2078 10.7661 11.4262 12.2339 13.2746 14.74 17.239 21 9.20198 9.58641 10.0232 10.5289 11.1294 11.8685 12.8303 14.2097 16.6789 21 9.33331 9.71438 10.1387 10.6173 11.1663 11.8097 12.5873 13.5699 14.9059 17.0028 21 9.61316 9.83581 9.99041 10.1503 10.316 10.4878 10.6662 10.8517 11.045 11.2466 11.4575 11.6784 11.9103 12.1544 12.4122 12.685 12.975 13.2843 13.6157 13.9726 15.0075 16.3417 18.2221 21 12.1544 12.5366 12.9651 13.4526 14.0179 14.6909 15.5223 16.6104 18.1886 21 12.4122 12.7923 13.2131 13.6844 14.2201 14.8404 15.5772 16.4847 17.6665 19.3642 21 12.685 13.0653 13.4867 13.9593 14.4972 15.1213 15.8647 16.7842 17.9898 19.7441 21 12.975 13.3568 13.7837 14.268 14.8273 15.4893 16.3003 17.3478 18.8287 21 13.2843 13.6682 14.1031 14.6045 15.1967 15.9198 16.8487 18.1491 20.3351 21 13.6157 13.9975 14.4246 14.909 15.4687 16.1315 16.944 17.9942 19.4815 21 13.9726 14.3533 14.776 15.2513 15.7942 16.427 17.1857 18.133 19.3949 21 14.3593 14.7461 15.1921 15.7187 16.3615 17.1869 18.3415 20.2786 21 14.7812 15.16 15.5762 16.038 16.5566 17.148 17.836 18.6583 19.6807 21 15.2454 15.6267 16.0521 16.533 17.0861 17.737 18.5279 19.536 20.9275 21 15.7612 16.1419 16.5648 17.0405 17.584 18.2179 18.9785 19.9294 21 16.3417 16.7268 17.1661 17.6774 18.289 19.0501 20.0585 21 17.0053 17.3878 17.8173 18.3069 18.8764 19.5569 20.4025 21 17.7801 18.1612 18.5858 19.0649 19.6149 20.2601 21 18.7107 19.0916 19.5151 19.9921 20.538 21 19.8762 20.2574 20.6821 21 9.79799 10.1846 10.63 11.1549 11.7944 12.6128 13.7507 15.6312 21 10.1036 10.4842 10.9069 11.3819 11.9244 12.5564 13.3138 14.2586 15.5155 17.3981 21 10.4179 10.7973 11.2158 11.6821 12.2088 12.8137 13.5243 14.3856 15.4789 16.9775 19.3725 21 10.6257 11.0057 11.426 11.8962 12.4297 13.0464 13.777 14.6733 15.8335 17.4805 20.3497 21 10.7076 11.09 11.5194 12.0089 12.5781 13.258 14.1024 15.2174 16.8625 20.0669 21 10.9085 11.1305 11.284 11.4421 11.6052 11.7735 11.9474 12.1273 12.3137 12.5069 12.7076 12.9164 13.1338 13.3607 13.5979 13.8464 14.1073 14.3819 14.6719 14.9789 15.3051 15.653 16.0258 16.4274 17.5916 19.0926 21 13.3607 13.7448 14.1803 14.6833 15.2784 16.0072 16.9475 18.2751 20.5541 21 13.5979 13.9782 14.3996 14.8723 15.4103 16.0346 16.7785 17.6988 18.9059 20.6642 21 13.8464 14.2269 14.6494 15.1242 15.666 16.2971 17.0528 17.9944 19.2448 21 14.1073 14.4905 14.9229 15.4189 16.0005 16.7036 17.5925 18.8023 20.7055 21 14.3819 14.7614 15.1801 15.6468 16.1743 16.7805 17.4934 18.3585 19.459 20.973 21 14.6719 15.0531 15.4779 15.9576 16.5084 17.1553 17.9389 18.933 20.294 21 14.9789 15.363 15.7985 16.3013 16.8961 17.6244 18.5637 19.8889 21 15.3051 15.6892 16.1247 16.6276 17.2227 17.9513 18.8914 20.2183 21 15.653 16.0353 16.4642 16.9525 17.5194 18.1953 19.0321 20.1313 21 16.0258 16.4049 16.8221 17.2859 17.808 18.4052 19.1028 19.9417 20.9938 21 16.4274 16.8069 17.2256 17.6925 18.2202 18.8269 19.5405 20.4068 21 16.8624 17.2444 17.6721 18.1578 18.7199 19.387 20.2076 21 17.3371 17.7199 18.1508 18.6436 19.2189 19.9103 20.7766 21 17.8592 18.2415 18.6704 19.1588 19.7258 20.4018 21 18.4395 18.8259 19.27 19.7923 20.4263 21 19.0926 19.4732 19.896 20.3715 20.9145 21 19.8392 20.2203 20.6447 21 20.7108 21 11.196 11.5771 12.0018 12.4812 13.0316 13.6776 14.4597 15.4509 16.8054 18.9558 21 11.3329 11.5549 11.7084 11.8665 12.0295 12.1979 12.3718 12.5517 12.7381 12.9313 13.132 13.3407 13.5582 13.785 14.0222 14.2707 14.5317 14.8063 15.0962 15.4032 15.7294 16.0774 16.4502 16.8518 18.016 19.5169 21 13.785 14.1664 14.5919 15.0731 15.6266 16.2783 17.0706 18.0814 19.4789 21 14.0222 14.4041 14.8315 15.3165 15.8773 16.542 17.3581 18.4154 19.9195 21 14.2707 14.6523 15.0786 15.5613 16.1178 16.7748 17.5767 18.606 20.0454 21 14.5317 14.9135 15.3406 15.8252 16.3851 17.0483 17.8615 18.9131 20.4038 21 14.8063 15.1874 15.6116 16.09 16.6386 17.2815 18.0579 19.0384 20.3699 21 15.0962 15.4799 15.9138 16.4132 17.0012 17.7164 18.6295 19.8934 21 15.4032 15.7833 16.204 16.6751 17.2102 17.8296 18.5649 19.4697 20.6463 21 15.7294 16.1106 16.5354 17.015 17.5657 18.2123 18.9954 19.9885 21 16.0774 16.4615 16.8968 17.3994 17.9937 18.7209 19.658