<?xml version="1.0"?>
<VTKFile type="UnstructuredGrid" version="0.1" byte_order="LittleEndian">
  <UnstructuredGrid>
    <Piece NumberOfCells="30400" NumberOfPoints="33579">
      <CellData Scalars="p (Pa)">
        <DataArray type="Float32" Name="p (Pa)" NumberOfComponents="1" format="ascii">
          28561.4 28465.3 28273.3 27985.6 27603.1 27127.1 26560.2 25906.8 25172.8 24366.2 23496.9 22575.9
          21614.9 20625.6 19619 18605.8 17596.8 16602.5 15634.4 14704.5 28529.4 28431.3 28235.3 27941.4
          27550 27062.5 26481.2 25810.3 25056.1 24227.2 23334.2 22389.3 21405 20393.4 19365.7 18332.7
          17304.5 16292 15306.8 14361.5 28466.9 28365 28161 27854.5 27445.6 26934.8 26324.2 25617.6
          24822 23946.9 23005 22010.7 20978.5 19921.6 18851.2 17777.6 16710.5 15660.3 14639.2 13661.2
          28377.3 28269.6 28053.7 27728.6 27293.3 26747.4 26091.7 25329.9 24469.1 23521 22501.7 21429.5
          20322.4 19195.5 18059.7 16923.7 15795.9 14686.1 13606.8 12574.2 28265.1 28150.1 27918.8 27569.3
          27099.1 26505.9 25788.9 24950.2 23997.4 22944.8 21813.8 20630.1 19417.9 18194.2 16968.7 15747
          14534.1 13338.1 12171.9 11054.6 28136.8 28012.9 27763.3 27384.4 26871.7 26219.7 25424.6 24485.9
          23410.2 22215.3 20931 19595.5 18243.2 16893.9 15553.1 14219.7 12892.8 11576.9 10284.4 9037.9
          27999.8 27866.2 27596.3 27184.5 26623.1 25902.8 25014.3 23952.1 22719.9 21338.4 19850.1 18313.8
          16782 15276.6 13793.4 12318.9 10842.1 9360.63 7884.64 6439.99 27863 27719.4 27428.4 26982.3
          26369.5 25575 24582.3 23377.2 21956.6 20341.6 18591 16797.1 15043.9 13351.3 11695.8 10043.4
          8367.97 6655.75 4910.32 3158.06 27735.3 27582.3 27271.5 26792.6 26129.9 25262.3 24163.8 22808.3
          21180.2 19295.4 17228.9 15121.1 13106.8 11194.4 9327.43 7444.17 5498.4 3458.38 1312.01 -923.219
          27625.7 27464.8 27137 26630.2 25925.2 24994.5 23803.5 22312.5 20489.6 18337.5 15939.2 13486.4
          11183.1 9008.42 6865.6 4665.37 2339.29 -174.12 -2920.91 -5916.26 27542 27375.2 27035.3 26508.6
          25773.7 24799.6 23545.6 21963.1 20007 17664.6 15010.7 12256.4 9653.69 7148.32 4623.06 1973.62
          -893.548 -4089.46 -7727.25 -11906.4 27490.2 27320.2 26973.7 26436.8 25687.7 24695 23417.6 21806.5
          19815.5 17426.8 14697.6 11793.1 8900.18 5988.53 2962.95 -286.537 -3890.62 -8036.59 -12956.4 -18935.9
          27474.1 27303.5 26956 26418.4 25670.1 24682.3 23417.3 21832.1 19885.7 17559.5 14884.8 11955.2
          8866.89 5597.13 2062.12 -1865.23 -6370.57 -11742 -18408.7 -27040.4 27495.3 27326.3 26982.5 26452.1
          25716.5 24750.4 23521.7 21993.9 20132.1 17914.6 15346.3 12458.8 9274.52 5749.45 1780.96 -2800.81
          -8266.37 -15060.5 -23944.3 -36351.7 27553.3 27387.6 27051.1 26533.2 25817.8 24883.1 23701.7 22242.5
          20473.9 18369.5 15911.9 13088.6 9869.64 6176.06 1865.26 -3298.38 -9704.16 -18027 -29543.2 -47049.6
          27646.2 27485 27157.9 26655.7 25964.3 25064.6 23932.8 22540.8 20857.9 18852.2 16489.7 13727.9
          10499.6 6688.59 2102.84 -3574.43 -10881.1 -20788.6 -35235.1 -58712.1 27771.6 27615.4 27298.9 26813.7
          26147.4 25282.6 24197.6 22865.8 21255.7 19330 17042.4 14329.3 11095.5 7189.34 2365.55 -3785.46
          -11979.4 -23550.7 -41203.5 -70946.3 27926.3 27775.4 27469.9 27002.1 26360.4 25528.6 24486.1 23206.4
          21656.3 19793.9 17562.8 14884.2 11639.7 7644.36 2596.7 -4018.92 -13138.3 -26580.9 -48118.1 -85479.1
          28107.4 27961.9 27667.4 27216.6 26598.6 25797.7 24793.4 23558.8 22058.8 20247 18059.3 15404
          12142.8 8058.39 2788.66 -4308.19 -14461.7 -30235 -57336.6 -107453 28312 28171.9 27888.3 27454.3
          26859 26087.2 25118.1 23924 22467.9 20699.4 18547.9 15910.6 12631.5 8460.51 2968.74 -4644.78
          -16049.1 -35193.8 -72401.5 -149477 28537.3 28402.6 28130 27712.6 27139.8 26396.3 25461.1 24305.7
          22891.3 21164.3 19048.7 16432.5 13143.8 8901.4 3206.66 -4928.85 -17806.3 -42154.7 -103843 -269927
          28780.8 28651.7 28390.3 27989.8 27439.9 26725.1 25824.4 24708.7 23338 21656.5 19584.4 17003.1
          13728.9 9457.06 3637.73 -4842.5 -18617.5 -45302.3 -110946 -264400 29039.9 28916.6 28666.8 28284.1
          27758 27073.6 26209.9 25137.7 23816.8 22190.8 20178.4 17659 14445 10225.2 4441.34 -4007.52
          -17508.1 -41480.7 -83646.9 -84080.4 29312 29194.7 28957.3 28593.4 28093 27441.6 26618.8 25596.4
          24335 22779.7 20851.8 18435.3 15352.5 11315.9 5828.13 -2023 -13911.2 -32156.1 -52944.7 -38182.2
          29594.1 29483.4 29259.1 28915.4 28442.8 27827.7 27051 26086.1 24896.4 23431.1 21618.5 19356.4
          16495.1 12810.7 7962.8 1456.09 -7216.6 -17271.8 -21449.9 -15106.8 29883.3 29779.4 29569.1 29247
          28804.5 28229.3 27504.1 26605 25499.9 24144.6 22479.3 20423 17868.1 14678.5 10707.5 5883.86
          507.498 -4025.19 -4819.01 -1867.83 30176.1 30079.4 29883.8 29584.6 29174.3 28642.1 27973.1 27147.4
          26138.1 24910.1 23418.4 21606.8 19412.3 16779.1 13702.3 10327.2 7129.18 5041.31 4942.2 6504.74
          30468.7 30379.6 30199.3 29923.9 29547.2 29060.2 28451 27703.7 26797.9 25708.3 24404.9 22856
          21035.9 18945.1 16649.6 14344.3 12407.7 11328.4 11351.3 12251 30757.4 30675.8 30511 30259.9
          29917.4 29476.8 28928.8 28262 27462.2 26513.4 25399.3 24107.3 22637.6 21020 19339.1 17761.2
          16531.7 15889.3 15902.3 16439.7 31038.1 30964 30814.6 30587.5 30279 29884.2 29396.7 28808.9
          28112.4 27298.8 26362.3 25303.1 24135.7 22899.2 21670.1 20569.2 19743.5 19311.2 19293 19616.1
          31306.9 31240 31105.5 30901.5 30625.8 30274.9 29845 29331.9 28731.6 28041.4 27262.4 26402.4
          25481 24535.9 23627.6 22837.7 22253.1 21935.2 21892.3 22084.2 31559.9 31499.9 31379.3 31197.2
          30952 30642 30265.3 29820.2 29306 28723.9 28079 27382.2 26653.6 25925.1 25241.7 24657.3
          24224 23976.3 23918.8 24029.5 31793.6 31739.9 31632.1 31469.9 31252.6 30979.5 30650.3 30265.2
          29825.6 29335.2 28800.7 28233.9 27653 27083.5 26557.8 26112 25778.4 25577.7 25513.5 25573.7
          32004.9 31956.8 31860.5 31716 31523.3 31282.6 30994.6 30660.9 30284.2 29869.2 29423.6 28958.3
          28488.8 28035.3 27621.1 27270.8 27005.3 26838.2 26772.3 26801.1 32190.9 32147.7 32061.3 31932.1
          31760.5 31547.4 31294.2 31003.3 30678.1 30323.9 29948.1 29560.6 29174.6 28805.5 28470.6 28187.2
          27969.5 27827 27762.2 27771.5 32349.3 32310.2 32232.1 32115.7 31961.6 31771.2 31546.4 31290
          31005.8 30699.2 30377.1 30048.3 29723.8 29415.7 29137.4 28901.2 28717.5 28593.2 28530.7 28528.1
          32478.3 32442.4 32371 32264.7 32124.5 31952 31749.5 31519.8 31267.1 30996.4 30714.3 30428.6
          30148.5 29884 29645.4 29442.3 29282.6 29171.7 29111.7 29101.8 32576.2 32542.8 32476.4 32377.6
          32247.8 32088.6 31902.4 31692.3 31462.3 31217.3 30963.5 30708 30458.6 30223.8 30012.2 29831.6
          29688.3 29586.8 29529.1 29514.8 32642.1 32610.3 32547.2 32453.5 32330.5 32180 32004.5 31807.2
          31591.9 31363.5 31127.8 30891.3 30661.3 30445.1 30250.3 30083.6 29950.6 29855.1 29799 29782.3
          32675.2 32644.3 32582.8 32491.6 32372 32225.9 32055.7 31864.6 31656.6 31436.3 31209.4 30982.2
          30761.4 30554.2 30367.5 30207.5 30079.4 29986.7 29931.5 29913.8 28364 28264 28064 27764.3
          27365.4 26868.8 26277.2 25595.1 24829.1 23988.1 23082.8 22125.6 21128.9 20104.2 19061.9 18011
          16959.1 15913.3 14880.4 13867.4 28330.5 28228.3 28023.8 27717 27308.2 26798.5 26190.3 25488.2
          24698.9 23832.2 22900.2 21916.5 20894.8 19847.6 18785.3 17716.4 16648.3 15587.5 14540.8 13515.5
          28265.2 28158.7 27945.2 27624.2 27195.4 26659.1 26017.1 25273.5 24435.9 23515.6 22527.4 21488.5
          20415.4 19322.3 18219.5 17114.8 16014 14922.9 13847.8 12796.6 28171.5 28058.5 27831.6 27489.6
          27030.6 26453.6 25759 24950.2 24035.2 23028.1 21948.8 20820.9 19666.7 18502.7 17339 16180.6
          15030.8 13893.1 12773.2 11679.8 28054.4 27933.1 27688.8 27318.9 26819.7 26187.4 25419.7 24518.1
          23490.4 22354.7 21139.5 19880.3 18609.9 17348.6 16103.7 14874.9 13660 12458.4 11274 10116.7
          27920.8 27789.5 27524.4 27120.7 26571.8 25869.6 25006.9 23980.6 22796.6 21477.3 20065.4 18618.7
          17190 15804.1 14460.3 13146.8 11851.2 10566 9291.7 8039.03 27778.9 27636.6 27348.3 26906.5
          26300.1 25515 24535.7 23349.7 21956.3 20380.7 18687.2 16975.7 15338.6 13803 12348.1 10939.4
          9547.85 8154.77 6754.57 5357.98 27638.2 27484.7 27172.3 26690.6 26022.8 25146.4 24033.2 22654.6
          20993.7 19071.1 16979.9 14896.6 12995.6 11293.2 9722.7 8210.32 6703.6 5167.47 3585.42 1965.44
          27508.8 27344.6 27009.7 26489.9 25762.7 24795.3 23543.3 21954 19980.1 17619.5 14991.4 12399.1
          10184.3 8308.75 6616.19 4978.79 3319.06 1578.55 -279.537 -2257.59 27400.2 27227.3 26873.6 26322.2
          25545.2 24500.3 23127 21345 19065.1 16237.2 12978.3 9751.19 7200.14 5127.97 3257.5 1415.99
          -488.726 -2552.69 -4852.82 -7420.82 27321.2 27142.2 26775.7 26203.1 25393.5 24299.1 22849.8 20947.8
          18472.8 15326.1 11580.8 7777.15 4881.23 2465.16 212.475 -2040.84 -4391.32 -7005.74 -10037.4 -13589.7
          27277.9 27096.2 26724.1 26142.9 25322 24214.4 22751.9 20841.8 18374 15264.7 11581.8 7737.64
          4361.87 1274.17 -1697.94 -4683.42 -7809.81 -11348.6 -15573.8 -20746.6 27274.3 27093 26722.2 26144.8
          25332.7 24244.5 22822.3 20991.6 18671 15806.2 12445.6 8818.16 5223.72 1626.68 -2051.39 -5919.98
          -10147.6 -15055.5 -21074.9 -28789 27311.4 27133.2 26769.5 26205.4 25417 24369.9 23018.7 21307.8
          19180.4 16599.7 13584 10228.3 6640.98 2799.98 -1371.38 -6015.86 -11377.7 -17883.6 -26229.5 -37600.3
          27388.1 27215 26862.4 26317.9 25561.6 24566 23295.9 21709.8 19766 17432.6 14701.4 11588.9
          8102.55 4185.15 -282.944 -5513.92 -11870.3 -19983.3 -30991.1 -47114.8 27501.8 27334.9 26995.9 26474.1
          25753.3 24811.2 23619.8 22146.4 20356.5 18217.4 15701.8 12782.3 9411 5489.26 843.711 -4822.15
          -12021.5 -21679.2 -35568.2 -57362.8 27649.1 27489 27164.4 26666.3 25981 25089.8 23969.4 22591.6
          20924.7 18933.5 16577.4 13804 10532 6626.57 1862.15 -4148.18 -12097.8 -23311.7 -40533.4 -69930.2
          27826.1 27673 27363 26888.1 26236.6 25392 24333.5 23035.4 21466.4 19588.2 17351.6 14688.3
          11495.3 7608.1 2752.76 -3552.16 -12216.7 -25137.5 -46767.4 -88653.2 28029.2 27883 27587.2 27134.6
          26514.5 25712.1 24707.7 23476.7 21987.2 20198.5 18055.1 15478.6 12350.5 8482.9 3558.57 -2998.67
          -12349.1 -27192.4 -55240.4 -124074 28255 28115.5 27833.3 27402 26811.4 26047.5 25091.4 23918.7
          22497.1 20783.6 18718.9 16217.6 13151 9313.84 4354.71 -2384.88 -12302.5 -28898.1 -62900.8 -150727
          28500.1 28367.2 28098.4 27687.5 27125 26397.3 25486 24366.8 23007 21362.3 19371.3 16944.9
          13949.2 10170 5238.57 -1549.42 -11763.3 -29830 -73661.3 -246980 28761.8 28635.4 28379.7 27989
          27453.9 26761.4 25893.6 24826.3 23527.1 21951.6 20037.9 17697 14795.7 11123.9 6328.86 -230.625
          -9827.92 -25202 -51989.1 -92314.8 29037.1 28917.2 28674.8 28304.2 27796.8 27139.8 26316 25302
          24066.3 22565.6 20740.3 18505.4 15736 12241.3 7717.29 1665.04 -6713.44 -18413.6 -32795.8 -39338
          29323.2 29210 28981.1 28631.2 28152.1 27531.9 26754.2 25797.1 24630.7 23214.8 21494.8 19394.4
          16806 13574.1 9473.04 4190.87 -2597.61 -10737.6 -17801.5 -17261.2 29617.1 29510.8 29295.8 28967.3
          28517.8 27936.2 27207.7 26312.2 25222.8 23904.3 22309.3 20375.7 18021.2 15140.2 11608.2 7320.21
          2349.59 -2581.73 -5383.54 -4297.58 29915.7 29816.5 29615.9 29309.6 28890.9 28350.1 27674 26845.2
          25840.9 24631.8 23180.9 21442.6 19364.6 16894.9 14004.8 10748.3 7392.95 4619.03 3473.15 4284.73
          30215.8 30123.8 29937.9 29654.6 29267.9 28769.6 28148.8 27391 26478.2 25388.1 24094.8 22569.9
          20788.9 18743.3 16467.8 14087.7 11882.4 10303 9782.18 10327.6 30513.6 30429 30258.2 29998.1
          29644.1 29189.5 28625.5 27941.3 27123.7 26157.5 25027.1 23719.5 22231.6 20582.5 18834.6 17120.3
          15656 14701.4 14425.9 14784.3 30805.7 30728.4 30572.5 30335.8 30014.5 29603.6 29096.8 28486.4
          27763.8 26920.4 25949.3 24849.1 23630 22324 20997 19759.2 18757.8 18135.4 17960 18190.8
          31088.2 31018 30876.9 30663 30373.7 30005.5 29554.3 29015.3 28384.1 27657.1 26833.9 25920.5
          24933.8 23908.3 22901.6 21995.7 21285.3 20849.3 20717.3 20861.1 31357.5 31294.2 31167.1 30975
          30716.2 30388.7 29990 29518.1 28971.3 28350.2 27658.4 26905.8 26111.4 25306.4 24536.8 23860.7
          23338 23014.1 22903.4 22988.3 31610.1 31553.2 31439.3 31267.6 31037.2 30747.2 30396.8 29985.7
          29514.6 28986.4 28407.3 27788.5 27148 26512.2 25916.2 25400.1 25002.5 24750.6 24652.8 24698.4
          31842.7 31791.8 31689.8 31536.6 31332 31075.9 30768.5 30411.1 30005.8 29557 29071.7 28561.2
          28041.4 27533.8 27064.3 26661 26349.3 26146.5 26058.2 26078 32052.4 32006.8 31915.5 31778.8
          31596.9 31370.4 31100.5 30789.2 30439.6 30056.7 29647.8 29223.3 28796.7 28385.2 28008.1 27685.3
          27434.2 27266.3 27185.8 27189 32236.7 32195.6 32113.6 31991.1 31828.7 31627.5 31389.3 31116.4
          30812.7 30483.3 30135.2 29777.7 29422.3 29082.4 28772.8 28508 28300.2 28157.8 28083.9 28076.7
          32393.5 32356.2 32281.9 32171.2 32025 31844.7 31632.3 31390.7 31123.7 30836.5 30535.7 30229.3
          29927.2 29640.2 29379.8 29156.7 28980.2 28856.5 28788.2 28774.5 32520.9 32486.7 32418.6 32317.3
          32183.9 32020.1 31828 31610.7 31372 31117 30851.6 30583.3 30320.2 30071.4 29846.1 29652.8
          29498.6 29388.5 29324.8 29307.2 32617.6 32585.7 32522.2 32428 32304.1 32152.5 31975.4 31775.9
          31557.8 31325.8 31085.8 30844.3 30608.5 30386.2 30185 30012.1 29873.2 29772.6 29712.3 29692.4
          32682.6 32652.2 32591.8 32502.2 32384.8 32241.2 32073.9 31886 31681.3 31464.3 31240.6 31016.1
          30797.6 30591.9 30405.9 30245.7 30116.5 30021.9 29963.9 29942.8 32715.3 32685.7 32626.8 32539.5
          32425.2 32285.6 32123.2 31941.1 31742.9 31533.3 31317.5 31101.3 30891.2 30693.5 30514.8 30360.8
          30236.2 30144.6 30087.8 30066.1 28188.6 28085 27877.7 27566.7 27152.7 26636.9 26022 25312.5
          24515.6 23640.7 22699.6 21705.5 20671.3 19608.8 18527.3 17434 16333.4 15228.5 14121 13011.8
          28153.9 28047.8 27835.5 27516.8 27091.8 26561.3 25927.8 25195.7 24372.3 23468.3 22497 21473.5
          20412.5 19326.8 18225.9 17116.2 16001.8 14884.9 13766.7 12648.1 28086.2 27975.3 27753.1 27418.8
          26971.5 26411.2 25739.3 24960 24081.1 23115.4 22080 20994.4 19877.7 18744.6 17604.8 16463.3
          15322.1 14181.6 13042.1 11904.4 27989 27871.1 27634.2 27276.4 26795.3 26189 25456.8 24601.9
          23632.5 22564.7 21422.5 20234.8 19028.6 17822.6 16625.4 15438.3 14259.2 13085 11913.9 10746.5
          27867.9 27740.8 27484.5 27095.6 26569 25899.3 25082.1 24117.1 23012.1 21787.7 20479.9 19135.7
          17798.7 16493.1 15223 13981.3 12757.3 11542 10329.6 9119.88 27730 27591.8 27312.3 26885.4
          26302 25550.9 24620.6 23503.3 22202.3 20742.5 19180.5 17599.8 16079.3 14649.2 13299.6 12004.1
          10736.8 9477.7 8214.92 6946.65 27584.2 27433.8 27128.3 26658.1 26008.3 25159 24085.9 22765.9
          21187.8 19375.3 17416.8 15472.2 13701.1 12133.6 10718.2 9388.42 8092.96 6795.35 5473.37 4122.23
          27440.6 27277.7 26945.3 26429.6 25708.1 24748.4 23506.6 21930.3 19973.3 17636.5 15046 12520
          10423.7 8741.19 7313.01 5996.5 4706.84 3384.55 1991 515.592 27310.2 27135.6 26778 26218.9
          25427.7 24356.4 22934.4 21063.5 18626.8 15545.3 11950.5 8462.19 6000.43 4302.52 2962.26 1725.65
          486.251 -847.226 -2342.51 -4022.06 27203.4 27019.3 26641.1 26046.5 25197.3 24031.3 22449.7 20299.1
          17356.7 13370 8329.35 3277.8 577.522 -976.502 -2172.21 -3330.08 -4516.97 -5890.25 -7577.61 -9628.35
          27129.4 26939.1 26547.5 25930.4 25045.5 23822.7 22147.1 19829.9 16567 11919.7 5548.93 -1407.49
          -4040.81 -5698.51 -7135.19 -8530.28 -9853.71 -11456.7 -13588.8 -16365.3 27095 26902.3 26506.1 25882.3
          24989.6 23760.3 22086.6 19798.1 16640.1 12297.2 6644.21 572.068 -3580.32 -6977.62 -9834.76 -12274.9
          -14346.8 -16751.5 -19913.2 -24116.8 27103.8 26912.6 26520 25904.6 25029.6 23837.5 22241.5 20115.9
          17295 13615.3 9072.86 4124.5 -392.522 -4691.81 -8754.18 -12617.7 -16389.7 -20576.3 -25724.9 -32512.5
          27156.5 26969.9 26587.9 25992.2 25152.6 24024 22542.6 20623.7 18169.3 15098.6 11420.8 7318.8
          3059.97 -1378.25 -5997 -10878.6 -16217.8 -22459.1 -30327.1 -41062.8 27251.5 27071.6 26704.6 26135.6
          25340.7 24285.7 22925 21202.5 19058 16443.9 13352.7 9833.93 5946.55 1654.05 -3122.19 -8558.36
          -14984.6 -23013.3 -33787 -49603.6 27385.2 27213.4 26863.9 26324.6 25577 24595.1 23345.7 21789.4
          19884.6 17594.5 14894.9 11773.7 8205.4 4110.12 -659.326 -6373.06 -13518.8 -23009.8 -36684 -58679.8
          27553.6 27390.3 27059 26549.9 25848.3 24933.7 23780.8 22359.3 20635.9 18576 16144.5 13299.5
          9975.85 6058.27 1347.71 -4509.62 -12170.7 -22953.6 -39829.4 -70759.9 27752 27597.3 27284 26804
          26145.1 25290.6 24219.7 22906.8 21322.2 19431.2 17191.6 14546.4 11410 7642.86 3008.68 -2917
          -10961.6 -22940.2 -43526.1 -87172.9 27976.2 27829.8 27533.7 27081 26461.3 25660.1 24659.1 23435.4
          21960.7 20199.7 18106 15615.3 12631.1 9000.16 4463.73 -1449.25 -9693.93 -22535.8 -46766.6 -109650
          28222.1 28083.7 27804 27376.9 26793 26039.4 25099.5 23951.6 22568.3 20913.8 18940.3 16580.2
          13733.1 10242 5844.25 64.8446 -8044.68 -20612 -42968 -88276.5 28486.1 28355.4 28091.3 27688.2
          27137.7 26427.9 25543 24462.6 23159.8 21599.5 19733.8 17495.7 14787 11456.8 7258.93 1760.72
          -5874.97 -17453.3 -37183.9 -72725.2 28764.9 28641.6 28392.5 28012.5 27493.8 26825.2 25992 24974.6
          23747.5 22276.6 20516.3 18403 15846.4 12712.6 8795.91 3768.63 -2900.39 -12018.6 -24327.9 -37585
          29055.3 28939.3 28704.9 28347.4 27859.7 27231.3 26448.4 25492.8 24340.4 22959.8 21309 19331.4
          16949.4 14054.8 10497.5 6077.88 577.487 -6048.56 -12987.3 -17277.9 29354.4 29245.6 29025.7 28690.7
          28233.7 27645.3 26912.9 26019.8 24944.4 23658.5 22125.9 20299.4 18118.6 15506.9 12375.3 8643.89
          4324.05 -255.031 -4030.82 -5234.51 29659.1 29557.5 29352.2 29039.6 28613.7 28065.9 27385 26556.4
          25561.4 24376.4 22972.1 21313.1 19358.5 17066 14405.1 11392.5 8175.22 5178.8 3200.48 2937.68
          29966.3 29871.8 29681.3 29391.4 28996.8 28490.3 27862.3 27100.5 26189.6 25111.3 23844.2 22365.2
          20653 18696.2 16510.7 14172.4 11871.1 9960.16 8893.23 8897.31 30272.6 30185.4 30009.7 29742.5
          29379.7 28915 28340.9 27647.5 26823.4 25855.5 24730.3 23436.4 21968.9 20339.3 18590.5 16818.9
          15196.7 13965 13351.5 13417 30574.8 30494.8 30333.8 30089.3 29758.1 29335.4 28815.3 28190.7
          27453.9 26596.9 25613.1 24500.4 23266 21934.4 20558 19228.3 18077.7 17256.2 16873.7 16938.6
          30869.3 30796.5 30649.8 30427.8 30127.7 29746.2 29279.2 28722.2 28070.7 27321.1 26472.4 25529.2
          24505.6 23430.9 22356 21356 20524.5 19952 19692 19739.2 31152.8 31086.8 30954.1 30753.7
          30483.6 30141.9 29725.9 29233.5 28662.8 28013.6 27289.2 26497.8 25656.6 24794.5 23955.2 23196
          22580.5 22163.3 21972 21999.4 31421.9 31362.4 31242.9 31062.9 30821.3 30516.9 30148.8 29716.4
          29219.9 28661.9 28047.6 27387.6 26698.9 26007.5 25348.4 24763.8 24296.4 23980 23829.9 23840.3
          31673.4 31619.9 31512.7 31351.7 31136.3 30866.3 30541.9 30163.7 29733.7 29255.7 28736.5 28186.7
          27622.3 27065.2 26542.5 26084.7 25720.9 25472.5 25349.1 25346.7 31904.2 31856.3 31760.3 31616.4
          31424.7 31185.7 30900.2 30569.9 30197.7 29788.4 29348.9 28889.7 28424.6 27971.6 27551.5 27186.4
          26896.4 26695.8 26591 26579.4 32111.9 32068.8 31982.8 31854.1 31683.3 31471.3 31219.6 30930.5
          30607.5 30255.6 29881.7 29495.3 29108.4 28735.4 28392.3 28095.3 27858.7 27692.6 27601.4 27583.9
          32294 32255.2 32177.7 32062.1 31909.2 31720.3 31497.2 31242.6 30960.3 30655.3 30334.2 30005.3
          29679 29366.8 29081.3 28834.5 28637 28496.1 28415.3 28394.1 32448.6 32413.3 32343 32238.3
          32100.3 31930.4 31730.7 31504.2 31254.7 30986.9 30707.2 30422.9 30142.6 29876.1 29633.2 29423.2
          29254.3 29132 29059.3 29035.8 32574.2 32541.7 32477.1 32381.1 32254.9 32100 31918.8 31714.2
          31490 31250.8 31002.4 30751.5 30505.4 30272.3 30060.3 29877 29728.6 29619.9 29553.2 29528.6
          32669.4 32639.1 32578.7 32489.2 32371.8 32228.1 32060.5 31872 31666.2 31447.7 31221.8 30994.6
          30772.6 30562.9 30372.4 30207.5 30073.4 29974.1 29911.8 29886.6 32733.4 32704.4 32647 32561.8
          32450.1 32313.8 32155.2 31977.2 31783.5 31578.4 31367 31155 30948.4 30753.5 30576.6 30423.2
          30298.2 30204.9 30145.4 30119.9 32765.5 32737.3 32681.2 32598.2 32489.4 32356.8 32202.6 32029.8
          31842.1 31643.6 31439.3 31234.7 31035.5 30847.9 30677.5 30529.8 30409.1 30318.7 30260.5 30235.1
          28038.3 27931.5 27717.9 27397.3 26970.1 26437.5 25801.9 25068.1 24243.1 23336.8 22361.8 21331.6
          20259.7 19157.6 18033.9 16893.5 15738.1 14566.3 13374.3 12155.8 28002.6 27893.3 27674.3 27345.4
          26906.3 26357.8 25701.9 24943.1 24088.9 23150.5 22141.9 21079.5 19978.7 18852.4 17709.2 16553.6
          15386.1 14204.6 13004.3 11778.7 27933.2 27818.7 27589.1 27243.4 26780.2 26199.1 25501.1 24690.1
          23774.1 22766.5 21686.2 20554.8 19393.4 18217.4 17035.8 15850.9 14660.9 13461.2 12245.5 11006.3
          27833.7 27711.6 27466.2 27095 26595.1 25963.5 25198.8 24303 23284.6 22160.6 20958.1 19710.8
          18450.5 17197.9 15960.4 14735.8 13516.8 12294 11058 9799.95 27709.7 27577.7 27311.5 26906.5
          26356.7 25654.9 24794.7 23773.6 22598 21289.9 19891.1 18459.8 17051.1 15693.8 14389.1 13122.8
          11876.7 10633.1 9376.74 8096.64 27568.9 27425 27133.6 26687.2 26074.6 25281.6 24292.2 23093.2
          21682.7 20085.2 18367.9 16641.6 15016.8 13531.7 12165.1 10874.7 9621.42 8373.06 7105.12 5802.75
          27420.6 27263.6 26943.9 26450 25763.6 24858.8 23702.7 22258.8 20500.3 18440 16182.1 13956.2
          12021.9 10412.1 9033.69 7778.51 6572.69 5362.03 4106.97 2786.65 27275.7 27105.1 26756.1 26212
          25445 24412.8 23054.2 21287.9 19022.4 16207.1 12968.7 9809.47 7460.93 5826.99 4594.58 3515.67
          2476.54 1393.1 201.361 -1127.97 27145.5 26962.4 26586 25994.1 25148.2 23985.2 22404.5 20248.5
          17286.2 13250.2 8115.91 2948.35 243.693 -1005.87 -1710.98 -2344.81 -2992.8 -3783.96 -4827.05 -6160.17
          27041.4 26848.2 26449.6 25818.9 24907.8 23633.3 21851.6 19306.7 15534.1 9727.65 921.181 -9323.83
          -11043.5 -10789 -10347.1 -10207.3 -10117.8 -10368.1 -11162.7 -12539.9 26972.9 26773.3 26361.1 25706.8
          24757.1 23418.5 21522 18745.3 14419.3 7016.95 -7023.34 -30269.9 -24066.2 -21675 -20408.4 -19736.4
          -18623.4 -18166.7 -18751.3 -20399.3 26947.1 26745.6 26329.6 25670.3 24716.2 23378.4 21502.1 18809.6
          14788.1 8513.2 -1281.94 -13640.3 -18784.5 -23633.8 -26474.1 -27534.4 -26209.6 -25800.6 -26849.7 -29521.1
          26967.7 26768.5 26358.3 25711.6 24783.4 23500.3 21743.1 19319.7 15932.2 11176.3 4757.8 -2686.09
          -8987.39 -15208.1 -20484.5 -24636.4 -27454.3 -30159.6 -33603.5 -38988.5 27035 26841.6 26444.9 25823.6
          24941.6 23743.2 22145.1 20027.8 17233.9 13597.6 9056.17 3853.67 -1502.18 -7128.46 -12747.9 -18313.7
          -23878.3 -29880.1 -37121.3 -47289.6 27146.8 26961.6 26583.3 25994.9 25168.7 24064.2 22625.4 20779.1
          18440.7 15533.5 12031.5 8002.02 3554.71 -1341.82 -6680 -12581.5 -19312.8 -27414.1 -38040 -53831.3
          27298.9 27123.4 26766 26213.4 25444.8 24431.1 23133.8 21506.3 19497.8 17062.4 14173 10825.8
          7013.23 2672.05 -2307.31 -8157.29 -15313.2 -24609.5 -37810.7 -59041.8 27486.6 27321.2 26985.2 26468.4
          25755.1 24823.3 23645.8 22189.9 20420.1 18300.9 15800.1 12884.2 9502.75 5561.53 896.153 -4796.03
          -12085.8 -22132.7 -37572.2 -65193.8 27704.7 27549.2 27234.2 26751.6 26088.9 25229.3 24151.7 22831
          21238.7 19343 17107.7 14487.1 11412.7 7772.95 3377.84 -2115.87 -9378.28 -19883.9 -37463.9 -74280.4
          27948.1 27802.3 27507.3 27056.4 26439.5 25643 24649.5 23438 21983.3 20255.4 18216.5 15815.9
          12979.2 9589.25 5451.33 217.247 -6800.87 -17184.8 -35533.9 -80812.6 28212.6 28075.8 27799.5 27378
          26802.7 26061.9 25140.8 24020.5 22678.2 21085 19203.4 16982.5 14348.6 11189.7 7325.4 2447.24
          -4012.31 -13180.2 -27426.8 -51455.3 28493.8 28365.7 28106.9 27712.7 27175.5 26485.1 25628 24587.5
          23342 21864.5 20119.3 18058.4 15614.2 12687.9 9128.97 4697.94 -1000.02 -8614.06 -19040.4 -32265.1
          28788.3 28668.3 28426.2 28057.7 27556.1 26912.2 26113.9 25145.9 23988.5 22616.8 20998.4 19090.6
          16835.8 14155.1 10938.9 7037.31 2260.4 -3561.22 -10284.4 -16546.7 29092.5 28980.4 28754.3 28410.4
          27942.6 27342.8 26600.2 25700.8 24627.1 23357.1 21862.8 20108.6 18049.7 15630.4 12785.4 9450.51
          5602.5 1368.51 -2740.01 -5581.08 29403.3 29298.8 29088.3 28768.1 28333.2 27776.1 27087.5 26255
          25263.6 24094.6 22725.4 21128.9 19274.4 17129.8 14670 11898.3 8893.37 5898.51 3418.66 2133.09
          29717.5 29620.6 29425.2 29128.4 28725.6 28210.6 27575.1 26809 25899.8 24832.7 23591 22156.6
          20512.7 18648.9 16572.6 14331.1 12048.8 9972.84 8471.56 7873.08 30032.1 29942.5 29762 29488.2
          29117.2 28643.7 28061.1 27361.2 26534.3 25570 24457.2 23186.6 21753.8 20165.7 18451.6 16680.2
          14980.2 13549.8 12617.1 12324.4 30343.7 30261.4 30095.6 29844.4 29504.6 29072.2 28541.9 27907.7
          27162.8 26300.7 25315.8 24206.2 22977.1 21647 20256.1 18876.5 17618.7 16623 16019.5 15865.9
          30649.3 30574 30422.6 30193.5 29884.3 29492.1 29013.1 28443.2 27778.6 27016 26154.6 25198.1
          24158 23058.7 21942.5 20874.1 19939.1 19230.7 18821 18731.6 30945.6 30877.1 30739.6 30531.8
          30252.3 29898.9 29469.4 28961.5 28373.7 27705.6 26960 26144.3 25273.2 24372.6 23481.3 22652.5
          21948.9 21430.7 21138.2 21078.7 31229.4 31167.4 31043.1 30855.8 30604.5 30288 29905.4 29455.9
          28939.8 28359.3 27719.1 27028.7 26304 25569.1 24857.4 24210.1 23671.8 23281.5 23062.4 23016.5
          31497.6 31441.7 31329.9 31161.7 30936.8 30654.8 30315.7 29920 29469.5 28967.7 28420.9 27839.2
          27237.9 26638.2 26067.2 25556.4 25136.9 24834.6 24663.5 24623.8 31747.3 31697.2 31596.8 31446.2
          31245.5 30995 30695.4 30348.3 29956.2 29523.7 29057.6 28567.8 28068.2 27576.9 27115.3 26706.9
          26373.9 26133.6 25995.1 25958.4 31976 31930.9 31840.9 31706.3 31527.3 31305 31040.5 30736.1
          30395 30022.1 29624.1 29210.5 28793.5 28387.9 28010.6 27679.2 27409.7 27214.2 27099 27063.9
          32181.1 32140.6 32059.8 31939.1 31779.4 31581.6 31347.7 31080 30782.3 30459.4 30117.9 29766.4
          29415.3 29076.7 28764.1 28490.7 28268.4 28105.8 28007.5 27973.7 32360.6 32324.1 32251.2 32142.6
          31999.2 31822.4 31614.2 31377.5 31115.8 30834.1 30538.4 30236.4 29937.1 29650.4 29387.1 29157.3
          28970 28831.9 28746.3 28713.5 32512.8 32479.5 32413.2 32314.7 32184.8 32025.4 31838.4 31626.8
          31394.3 31145.4 30885.9 30622.6 30363.2 30116.1 29889.8 29692.5 29531.3 29411.2 29335.2 29303.5
          32636.3 32605.6 32544.6 32454 32334.9 32189.2 32018.9 31827 31617.1 31393.5 31161.7 30927.6
          30698.1 30480.2 30281.2 30107.7 29965.4 29858.5 29789.5 29758.8 32729.8 32701.1 32644 32559.4
          32448.4 32312.8 32154.9 31977.4 31784 31578.9 31367 31153.9 30945.6 30748.3 30568.4 30411.5
          30282.4 30184.9 30120.8 30091 32792.6 32765.2 32710.7 32630 32524.4 32395.5 32245.7 32077.8
          31895.2 31702.1 31503.1 31303.5 31108.8 30924.7 30756.9 30610.5 30489.9 30398.1 30337.3 30308
          32824.1 32797.4 32744.2 32665.5 32562.5 32437 32291.2 32128 31950.8 31763.6 31570.9 31377.9
          31189.8 31012.2 30850.3 30709 30592.4 30503.5 30444.3 30415.3 27915.5 27806.3 27587.7 27259.5
          26821.9 26275.8 25623.6 24869.8 24021.3 23088.2 22082.9 21019.4 19911 18769.1 17600.8 16409.5
          15193.7 13948 12662.6 11323.4 27879.4 27767.5 27543.3 27206.4 26756.4 26193.6 25520 24739.7
          23860.2 22892.6 21851.4 20753.3 19614.1 18446.5 17258.2 16051.6 14824.5 13570.1 12277.8 10932.6
          27809.1 27691.9 27456.6 27102.1 26626.8 26029.8 25311.6 24475.8 23530.1 22488.3 21369.6 20196.9
          18992.3 17772 16543.9 15308.6 14060.8 12791 11486.5 10130.9 27708.5 27583.3 27331.5 26950.4
          26436.5 25786.2 24997.2 24070.7 23014.7 21846.3 20593.8 19293.8 17981.1 16678.4 15392.7 14119.3
          12846.7 11560 10242.2 8874.95 27583.3 27447.8 27174.2 26757.8 26191.3 25466.5 24575.5 23513.8
          22286.3 20914.3 19442.1 17934.3 16455.1 15038.2 13684.1 12374.2 11084.5 9790.01 8466.61 7092.02
          27441.4 27293.5 26993.7 26533.6 25900.8 25078.9 24048.7 22792.7 21304.1 19604 17762.4 15906.3
          14173.2 12614.3 11203.3 9885.47 8612.15 7341.42 6036.66 4669.42 27292.6 27130.9 26801.5 26291.4
          25580.3 24638.5 23426.8 21898.9 20013.7 17768.1 15262.8 12769.1 10644.9 8949.64 7560.26 6327.33
          5161.17 3993.1 2765.15 1438.97 27148 26972.3 26612.1 26049.2 25252.3 24172.7 22737.8 20843.8
          18359.3 15169.6 11341.6 7477.25 4769.43 3106.29 2019.28 1117.09 277.741 -605.056 -1628.83 -2844.74
          27019.6 26830.8 26442.1 25828.8 24947.6 23725.8 22042.2 19693 16340.1 11470.7 4615.35 -3142
          -6262.65 -6969.72 -6853.42 -6830.48 -6819.05 -6999.61 -7552.32 -8528.19 26919.1 26719.9 26308.2 25654.3
          24703.8 23360.3 21448.5 18628.3 14181.7 6431.39 -8661.53 -34573.7 -30357.1 -25721 -21769.5 -19581.1