<?xml version="1.0"?>
<VTKFile type="UnstructuredGrid" version="0.1" byte_order="LittleEndian">
  <UnstructuredGrid>
    <Piece NumberOfCells="29600" NumberOfPoints="32718">
      <CellData Scalars="p (Pa)">
        <DataArray type="Float32" Name="p (Pa)" NumberOfComponents="1" format="ascii">
          35901.4 35895.1 35882.7 35864.3 35840.1 35810.6 35776.2 35737.4 35694.9 35649.4 35601.5 35552.2
          35502.2 35452.5 35403.9 35357.4 35313.6 35273.4 35237.5 35206.5 35900.3 35894 35881.5 35863
          35838.8 35809.2 35774.7 35735.8 35693.2 35647.5 35599.5 35550 35499.8 35449.9 35401.2 35354.4
          35310.5 35270.1 35234.1 35202.9 35898.1 35891.8 35879.2 35860.6 35836.3 35806.5 35771.8 35732.7
          35689.8 35643.8 35595.5 35545.6 35495.1 35444.9 35395.8 35348.6 35304.3 35263.7 35227.3 35195.9
          35895 35888.6 35875.9 35857.2 35832.6 35802.6 35767.6 35728.2 35684.9 35638.5 35589.7 35539.4
          35488.4 35437.6 35388 35340.3 35295.5 35254.4 35217.6 35185.8 35891 35884.6 35871.8 35852.9
          35828.1 35797.8 35762.4 35722.5 35678.8 35631.9 35582.5 35531.6 35480 35428.5 35378.2 35329.9
          35284.5 35242.8 35205.4 35173.2 35886.5 35880 35867.1 35847.9 35822.8 35792.2 35756.4 35716.1
          35671.8 35624.2 35574.2 35522.6 35470.2 35418.1 35367 35317.9 35271.8 35229.4 35191.4 35158.6
          35881.6 35875 35861.9 35842.6 35817.2 35786.1 35749.9 35709 35664.2 35616 35565.3 35512.9
          35459.8 35406.8 35354.9 35305 35258.1 35214.9 35176.2 35142.8 35876.5 35869.9 35856.7 35837.1
          35811.4 35780 35743.3 35701.9 35656.4 35607.6 35556.2 35503.1 35449.1 35395.3 35342.5 35291.8
          35244.1 35200.1 35160.8 35126.7 35871.7 35865 35851.6 35831.8 35805.9 35774.1 35737 35695.1
          35649 35599.6 35547.4 35493.6 35438.9 35384.2 35330.7 35279.2 35230.6 35185.9 35145.9 35111.2
          35867.4 35860.6 35847.1 35827.1 35800.9 35768.8 35731.3 35688.9 35642.4 35592.3 35539.6 35485.1
          35429.7 35374.3 35320 35267.8 35218.5 35173.1 35132.4 35097.2 35863.8 35857 35843.4 35823.2
          35796.8 35764.4 35726.6 35683.9 35636.9 35586.4 35533.2 35478.1 35422.1 35366.2 35311.2 35258.4
          35208.5 35162.6 35121.4 35085.6 35861.3 35854.4 35840.8 35820.5 35793.9 35761.3 35723.3 35680.3
          35633.1 35582.2 35528.7 35473.2 35416.8 35360.4 35305.1 35251.7 35201.4 35155.1 35113.4 35077.3
          35860.1 35853.2 35839.5 35819.2 35792.5 35759.9 35721.8 35678.7 35631.3 35580.3 35526.5 35470.9
          35414.2 35357.6 35302 35248.5 35197.9 35151.3 35109.4 35073.1 35860.5 35853.6 35839.9 35819.6
          35793 35760.4 35722.2 35679.2 35631.8 35580.9 35527.1 35471.5 35414.9 35358.3 35302.7 35249.1
          35198.5 35151.9 35110 35073.6 35862.6 35855.8 35842.2 35821.9 35795.4 35762.9 35725 35682.1
          35635 35584.3 35530.8 35475.4 35419.1 35362.8 35307.4 35254.1 35203.7 35157.3 35115.6 35079.3
          35866.7 35859.9 35846.4 35826.3 35800 35767.8 35730.2 35687.7 35641 35590.8 35537.8 35482.9
          35427.1 35371.3 35316.5 35263.7 35213.8 35167.8 35126.5 35090.5 35872.8 35866 35852.7 35832.9
          35806.9 35775.2 35738 35696.1 35650 35600.4 35548.2 35494.1 35439.1 35384.1 35330.1 35278.1
          35229 35183.6 35142.9 35107.5 35880.9 35874.3 35861.2 35841.7 35816.2 35785 35748.5 35707.3
          35662 35613.3 35562.1 35509 35455 35401.1 35348.2 35297.3 35249.2 35204.8 35164.9 35130.2
          35891.2 35884.7 35871.8 35852.8 35827.8 35797.2 35761.6 35721.3 35677 35629.5 35579.4 35527.6
          35474.9 35422.4 35370.8 35321.1 35274.3 35231 35192.2 35158.4 35903.5 35897.2 35884.6 35866.1
          35841.7 35812 35777.2 35738 35694.9 35648.7 35600 35549.7 35498.6 35447.6 35397.5 35349.4
          35304 35262.2 35224.6 35191.9 35917.7 35911.6 35899.5 35881.4 35857.8 35829 35795.3 35757.3
          35715.6 35670.8 35623.7 35575 35525.7 35476.4 35428.2 35381.8 35338 35297.7 35261.6 35230.1
          35933.8 35927.9 35916.2 35898.8 35875.9 35848.1 35815.5 35778.9 35738.7 35695.5 35650.2 35603.4
          35555.9 35508.6 35462.3 35417.8 35375.9 35337.3 35302.7 35272.6 35951.6 35945.9 35934.6 35917.8
          35895.9 35869.1 35837.8 35802.6 35764 35722.6 35679.1 35634.3 35588.9 35543.6 35499.4 35456.9
          35416.9 35380.2 35347.2 35318.6 35970.8 35965.3 35954.5 35938.4 35917.4 35891.7 35861.8 35828.1
          35791.2 35751.6 35710.1 35667.4 35624.1 35581 35538.9 35498.6 35460.7 35425.8 35394.6 35367.5
          35991.2 35985.9 35975.6 35960.2 35940.1 35915.6 35887.1 35855 35819.8 35782.2 35742.7 35702.1
          35661 35620.2 35580.4 35542.2 35506.3 35473.4 35444 35418.5 36012.4 36007.4 35997.6 35983
          35963.9 35940.6 35913.4 35882.9 35849.5 35813.8 35776.5 35738 35699.2 35660.6 35623 35587
          35553.3 35522.4 35494.7 35470.8 36034.3 36029.6 36020.2 36006.3 35988.2 35966.1 35940.4 35911.5
          35879.9 35846.2 35810.8 35774.6 35738 35701.7 35666.3 35632.5 35600.9 35571.9 35546.1 35523.7
          36056.4 36051.9 36043.1 36029.9 36012.8 35991.9 35967.6 35940.3 35910.5 35878.7 35845.4 35811.2
          35776.8 35742.8 35709.6 35678 35648.4 35621.3 35597.2 35576.5 36078.5 36074.3 36065.9 36053.5
          36037.3 36017.5 35994.6 35968.9 35940.8 35910.9 35879.6 35847.5 35815.2 35783.3 35752.3 35722.7
          35695.1 35669.9 35647.6 35628.3 36100.2 36096.2 36088.3 36076.6 36061.3 36042.7 36021.1 35996.9
          35970.4 35942.3 35912.9 35882.9 35852.6 35822.7 35793.8 35766.2 35740.5 35717.1 35696.3 35678.4
          36121.1 36117.4 36109.9 36098.9 36084.5 36066.9 36046.6 36023.8 35999 35972.5 35945 35916.8
          35888.5 35860.5 35833.5 35807.8 35783.8 35762.1 35742.8 35726.3 36141.1 36137.5 36130.5 36120.1
          36106.5 36089.9 36070.8 36049.3 36025.9 36001.1 35975.2 35948.8 35922.2 35896.1 35870.8 35846.9
          35824.6 35804.3 35786.5 35771.2 36159.6 36156.3 36149.6 36139.8 36126.9 36111.3 36093.3 36073
          36051 36027.6 36003.3 35978.4 35953.5 35929 35905.4 35883 35862.2 35843.3 35826.7 35812.6
          36176.6 36173.4 36167.1 36157.8 36145.6 36130.8 36113.7 36094.6 36073.8 36051.7 36028.7 36005.3
          35981.9 35958.9 35936.7 35915.6 35896.2 35878.6 35863.1 35850 36191.6 36188.6 36182.6 36173.7
          36162.2 36148.1 36131.8 36113.7 36093.9 36073 36051.2 36029.1 36006.9 35985.2 35964.2 35944.4
          35926.2 35909.6 35895.2 35882.9 36204.5 36201.6 36195.9 36187.4 36176.3 36162.9 36147.4 36130
          36111.2 36091.2 36070.5 36049.4 36028.3 36007.7 35987.8 35969 35951.7 35936.1 35922.4 35910.9
          36215.1 36212.3 36206.8 36198.6 36188 36175 36160.1 36143.4 36125.3 36106.1 36086.2 36066
          36045.8 36026 36007 35989 35972.5 35957.7 35944.7 35933.7 36223.2 36220.5 36215.1 36207.2
          36196.8 36184.3 36169.8 36153.6 36136.1 36117.5 36098.2 36078.6 36059.1 36039.9 36021.6 36004.3
          35988.4 35974.1 35961.6 35951.1 36228.7 36226 36220.7 36213 36202.8 36190.5 36176.3 36160.5
          36143.3 36125.1 36106.3 36087.1 36068 36049.4 36031.4 36014.6 35999 35985.1 35973 35962.8
          36231.4 36228.8 36223.6 36215.9 36205.8 36193.7 36179.6 36164 36147 36129 36110.3 36091.4
          36072.5 36054.1 36036.4 36019.7 36004.4 35990.7 35978.7 35968.6 35869.1 35862.7 35850 35831.2
          35806.5 35776.3 35741.2 35701.5 35658.1 35611.5 35562.5 35512 35460.9 35410 35360.2 35312.5
          35267.7 35226.6 35189.9 35158.1 35868 35861.5 35848.8 35829.9 35805.1 35774.9 35739.6 35699.8
          35656.2 35609.5 35560.4 35509.7 35458.4 35407.3 35357.3 35309.4 35264.4 35223.1 35186.2 35154.4
          35865.7 35859.2 35846.4 35827.4 35802.5 35772.1 35736.6 35696.6 35652.7 35605.6 35556.2 35505.2
          35453.5 35402 35351.7 35303.4 35258 35216.3 35179.1 35147 35862.5 35855.9 35843 35823.9
          35798.8 35768.1 35732.3 35691.9 35647.6 35600.1 35550.2 35498.6 35446.4 35394.4 35343.5 35294.6
          35248.7 35206.6 35168.9 35136.3 35858.4 35851.8 35838.7 35819.4 35794 35763 35726.8 35686
          35641.3 35593.2 35542.7 35490.5 35437.6 35384.8 35333.2 35283.7 35237.1 35194.3 35156.1 35123
          35853.7 35847 35833.8 35814.2 35788.6 35757.2 35720.6 35679.3 35633.9 35585.2 35534 35481.1
          35427.4 35373.8 35321.4 35271.1 35223.7 35180.2 35141.2 35107.6 35848.6 35841.9 35828.5 35808.7
          35782.7 35750.9 35713.8 35672 35626 35576.6 35524.6 35470.9 35416.4 35362 35308.7 35257.4
          35209.2 35164.9 35125.2 35090.9 35843.4 35836.6 35823.1 35803 35776.7 35744.5 35707 35664.5
          35617.9 35567.8 35515.1 35460.6 35405.2 35349.9 35295.7 35243.5 35194.4 35149.3 35108.8 35073.8
          35838.4 35831.5 35817.8 35797.5 35770.9 35738.4 35700.3 35657.4 35610.2 35559.4 35505.9 35450.6
          35394.4 35338.2 35283.1 35230.1 35180.2 35134.2 35093 35057.4 35833.9 35826.9 35813.1 35792.6
          35765.7 35732.8 35694.4 35650.9 35603.2 35551.8 35497.6 35441.6 35384.6 35327.7 35271.8 35218
          35167.3 35120.6 35078.7 35042.4 35830.1 35823.1 35809.2 35788.5 35761.4 35728.2 35689.4 35645.6
          35597.4 35545.5 35490.8 35434.2 35376.6 35319 35262.5 35208 35156.7 35109.3 35066.9 35030.1
          35827.5 35820.4 35806.4 35785.6 35758.4 35725 35685.9 35641.8 35593.3 35541.1 35486 35429
          35370.9 35312.8 35255.8 35200.9 35149 35101.2 35058.3 35021.1 35826.2 35819.1 35805.1 35784.2
          35756.9 35723.4 35684.2 35640 35591.3 35538.9 35483.6 35426.3 35368 35309.7 35252.4 35197.2
          35145.1 35097 35053.8 35016.3 35826.5 35819.4 35805.3 35784.5 35757.2 35723.7 35684.6 35640.4
          35591.7 35539.3 35484 35426.8 35368.5 35310.2 35252.9 35197.6 35145.4 35097.3 35054.1 35016.5
          35828.5 35821.5 35807.5 35786.8 35759.6 35726.2 35687.3 35643.2 35594.8 35542.6 35487.6 35430.6
          35372.6 35314.6 35257.5 35202.5 35150.6 35102.6 35059.5 35022.1 35832.6 35825.6 35811.7 35791.1
          35764.2 35731.1 35692.5 35648.8 35600.8 35549.1 35494.6 35438.2 35380.7 35323.2 35266.7 35212.2
          35160.8 35113.3 35070.6 35033.5 35838.6 35831.7 35818.1 35797.7 35771.1 35738.5 35700.4 35657.3
          35609.9 35558.9 35505.2 35449.5 35392.8 35336.2 35280.5 35226.9 35176.2 35129.4 35087.4 35050.9
          35846.9 35840.1 35826.6 35806.6 35780.4 35748.4 35710.9 35668.6 35622.1 35572 35519.3 35464.7
          35409.1 35353.6 35299 35246.5 35196.9 35151.1 35109.9 35074.2 35857.2 35850.6 35837.4 35817.9
          35792.2 35760.8 35724.2 35682.8 35637.3 35588.4 35536.9 35483.6 35429.4 35375.3 35322.1 35270.9
          35222.6 35178 35138 35103.2 35869.7 35863.2 35850.4 35831.3 35806.3 35775.8 35740.1 35699.8
          35655.6 35608 35558 35506.2 35453.6 35401.1 35349.5 35300 35253.2 35210 35171.3 35137.7
          35884.2 35877.9 35865.4 35846.9 35822.7 35793.1 35758.5 35719.4 35676.6 35630.6 35582.2 35532.1
          35481.3 35430.6 35381 35333.2 35288.1 35246.6 35209.4 35177 35900.5 35894.4 35882.4 35864.5
          35841.1 35812.5 35779.1 35741.5 35700.2 35655.8 35609.2 35561.1 35512.3 35463.6 35416 35370.2
          35327 35287.3 35251.7 35220.7 35918.5 35912.7 35901.1 35883.9 35861.4 35833.9 35801.8 35765.6
          35726 35683.5 35638.8 35592.7 35546 35499.5 35454 35410.3 35369.2 35331.4 35297.5 35268.1
          35938.1 35932.4 35921.3 35904.8 35883.3 35856.9 35826.2 35791.6 35753.7 35713.1 35670.5 35626.6
          35582.1 35537.8 35494.6 35453.1 35414.1 35378.3 35346.2 35318.4 35958.8 35953.4 35942.8 35927
          35906.4 35881.3 35852 35819.1 35783 35744.3 35703.8 35662.1 35619.9 35578 35537.1 35497.9
          35461 35427.3 35397 35370.9 35980.4 35975.3 35965.2 35950.2 35930.6 35906.7 35878.9 35847.6
          35813.3 35776.7 35738.3 35698.9 35659 35619.4 35580.8 35543.9 35509.3 35477.5 35449.2 35424.7
          36002.6 35997.8 35988.2 35974 35955.4 35932.7 35906.4 35876.7 35844.3 35809.7 35773.5 35736.3
          35698.7 35661.5 35625.2 35590.6 35558.1 35528.4 35501.9 35479.1 36025.2 36020.6 36011.5 35998
          35980.5 35959 35934.1 35906.1 35875.6 35842.9 35808.8 35773.8 35738.5 35703.6 35669.6 35637.2
          35606.9 35579.2 35554.5 35533.2 36047.6 36043.3 36034.7 36022 36005.4 35985.2 35961.7 35935.3
          35906.6 35875.9 35843.8 35810.9 35777.9 35745.1 35713.4 35683.1 35654.8 35629 35606.1 35586.4
          36069.7 36065.6 36057.5 36045.5 36029.9 36010.8 35988.7 35963.9 35936.8 35908 35877.9 35847.1
          35816.1 35785.5 35755.9 35727.6 35701.3 35677.4 35656.1 35637.9 36091.1 36087.2 36079.6 36068.3
          36053.5 36035.6 36014.7 35991.4 35966 35938.9 35910.7 35881.8 35852.8 35824.2 35796.5 35770.2
          35745.8 35723.5 35703.9 35687 36111.4 36107.7 36100.5 36089.9 36076 36059 36039.4 36017.4
          35993.5 35968.1 35941.6 35914.5 35887.4 35860.7 35834.8 35810.3 35787.5 35766.9 35748.6 35733.1
          36130.3 36126.9 36120 36110 36096.8 36080.9 36062.4 36041.7 36019.1 35995.2 35970.3 35944.9
          35919.4 35894.4 35870.2 35847.3 35826.1 35806.9 35789.9 35775.5 36147.6 36144.3 36137.8 36128.3
          36115.9 36100.8 36083.3 36063.7 36042.4 36019.8 35996.3 35972.4 35948.4 35924.9 35902.2 35880.8
          35860.9 35843 35827.2 35813.9 36162.9 36159.8 36153.6 36144.6 36132.8 36118.4 36101.8 36083.2
          36063 36041.6 36019.4 35996.7 35974.1 35951.9 35930.5 35910.3 35891.6 35874.8 35860.1 35847.6
          36176 36173.1 36167.2 36158.5 36147.2 36133.5 36117.6 36099.9 36080.6 36060.2 36039 36017.5
          35996 35974.9 35954.6 35935.5 35917.8 35901.9 35888 35876.3 36186.8 36184 36178.3 36170
          36159.1 36145.9 36130.6 36113.6 36095 36075.4 36055.1 36034.5 36013.8 35993.6 35974.2 35956
          35939.1 35924 35910.8 35899.7 36195.1 36192.3 36186.8 36178.7 36168.1 36155.3 36140.5 36124
          36106 36087.1 36067.4 36047.4 36027.4 36007.9 35989.2 35971.6 35955.4 35940.8 35928.1 35917.5
          36200.6 36197.9 36192.5 36184.6 36174.2 36161.7 36147.2 36131 36113.5 36094.9 36075.6 36056.1
          36036.6 36017.6 35999.3 35982.1 35966.3 35952.1 35939.8 35929.4 36203.4 36200.7 36195.4 36187.6
          36177.3 36164.9 36150.6 36134.6 36117.2 36098.8 36079.8 36060.5 36041.2 36022.4 36004.4 35987.4
          35971.8 35957.8 35945.7 35935.5 35824.1 35817.5 35804.2 35784.6 35758.8 35727.3 35690.6 35649.2
          35603.8 35555.1 35504 35451.1 35397.6 35344.4 35292.3 35242.3 35195.4 35152.3 35113.9 35080.8
          35822.9 35816.2 35802.9 35783.2 35757.4 35725.8 35689 35647.4 35601.9 35553 35501.6 35448.6
          35394.9 35341.4 35289.1 35238.9 35191.8 35148.5 35109.9 35076.6 35820.5 35813.8 35800.4 35780.6
          35754.6 35722.8 35685.7 35643.9 35598.1 35548.8 35497.1 35443.7 35389.5 35335.6 35282.8 35232.2
          35184.7 35141 35102 35068.4 35817 35810.2 35796.8 35776.8 35750.5 35718.5 35681.1 35638.9
          35592.6 35542.9 35490.6 35436.6 35381.8 35327.3 35273.9 35222.6 35174.4 35130.2 35090.7 35056.6
          35812.7 35805.8 35792.2 35772 35745.5 35713.1 35675.3 35632.6 35585.7 35535.4 35482.4 35427.7
          35372.2 35316.8 35262.6 35210.6 35161.6 35116.7 35076.5 35041.8 35807.7 35800.7 35786.9 35766.5
          35739.7 35706.8 35668.5 35625.3 35577.7 35526.7 35472.9 35417.4 35361 35304.7 35249.6 35196.6
          35146.8 35101 35060.1 35024.7 35802.2 35795.2 35781.2 35760.5 35733.3 35700.1 35661.2 35617.4
          35569.2 35517.3 35462.7 35406.3 35348.9 35291.7 35235.5 35181.6 35130.8 35084 35042.3 35006.1
          35796.7 35789.6 35775.4 35754.4 35726.9 35693.2 35653.8 35609.3 35560.4 35507.8 35452.3 35394.9
          35336.6 35278.3 35221.2 35166.2 35114.3 35066.7 35024 34987.1 35791.3 35784.1 35769.8 35748.5
          35720.6 35686.5 35646.6 35601.5 35551.9 35498.5 35442.2 35384 35324.7 35265.4 35207.3 35151.3
          35098.5 35049.8 35006.3 34968.7 35786.4 35779.1 35764.7 35743.2 35715 35680.5 35640.1 35594.5
          35544.2 35490.2 35433.1 35374 35313.9 35253.7 35194.7 35137.7 35084 35034.6 34990.2 34951.9
          35782.3 35775 35760.4 35738.7 35710.3 35675.4 35634.7 35588.6 35537.8 35483.2 35425.5 35365.8
          35304.9 35244 35184.2 35126.4 35072 35021.8 34976.8 34937.8 35779.4 35772 35757.3 35735.5
          35706.8 35671.8 35630.7 35584.3 35533.2 35478.2 35420 35359.8 35298.4 35236.9 35176.5 35118.2
          35063.2 35012.4 34966.9 34927.4 35777.8 35770.4 35755.6 35733.8 35705 35669.8 35628.6 35582.1
          35530.8 35475.5 35417.1 35356.6 35294.9 35233.1 35172.3 35113.7 35058.3 35007.2 34961.4 34921.6
          35777.9 35770.5 35755.7 35733.9 35705.1 35669.9 35628.8 35582.2 35530.9 35475.6 35417.2 35356.6
          35294.9 35233.1 35172.3 35113.6 35058.1 35007 34961 34921.1 35779.8 35772.5 35757.8 35736
          35707.4 35672.3 35631.3 35584.9 35533.8 35478.8 35420.6 35360.3 35298.9 35237.3 35176.8 35118.3
          35063.1 35012.1 34966.3 34926.6 35783.8 35776.5 35761.9 35740.3 35711.9 35677.2 35636.5 35590.5
          35539.8 35485.3 35427.7 35367.9 35307 35246.1 35186.1 35128.2 35073.5 35023 34977.7 34938.3
          35790 35782.7 35768.3 35747 35718.9 35684.6 35644.5 35599.1 35549.1 35495.3 35438.5 35379.6
          35319.6 35259.5 35200.4 35143.4 35089.6 35039.8 34995.2 34956.4 35798.3 35791.2 35777 35756
          35728.5 35694.7 35655.3 35610.7 35561.6 35508.8 35453 35395.3 35336.4 35277.6 35219.7 35163.9
          35111.2 35062.6 35018.9 34980.9 35808.9 35801.9 35788.1 35767.5 35740.5 35707.5 35668.9 35625.3
          35577.4 35525.8 35471.3 35415 35357.6 35300.3 35243.9 35189.6 35138.3 35091 35048.5 35011.6
          35821.7 35814.9 35801.4 35781.3 35755.1 35722.9 35685.3 35642.9 35596.2 35546.1 35493.2 35438.5
          35382.9 35327.3 35272.7 35220.1 35170.5 35124.8 35083.7 35048.1 35836.6 35830 35816.8 35797.4
          35771.9 35740.7 35704.3 35663.2 35618.1 35569.5 35518.4 35465.6 35411.9 35358.3 35305.7 35255.1
          35207.4 35163.4 35124 35089.8 35853.4 35847 35834.3 35815.6 35790.9 35760.8 35725.7 35686.1
          35642.6 35595.8 35546.7 35495.9 35444.3 35392.9 35342.5 35294.1 35248.4 35206.4 35168.8 35136.1
          35872 35865.8 35853.7 35835.6 35811.9 35783 35749.2 35711.2 35669.4 35624.6 35577.6 35529
          35479.7 35430.6 35382.5 35336.4 35292.9 35253 35217.2 35186.2 35892.1 35886.2 35874.5 35857.2
          35834.6 35806.9 35774.6 35738.2 35698.3 35655.6 35610.6 35564.4 35517.5 35470.8 35425.2 35381.4
          35340.3 35302.5 35268.7 35239.4 35913.5 35907.9 35896.7 35880.2 35858.6 35832.2 35801.4 35766.7
          35728.8 35688.1 35645.5 35601.5 35557.1 35512.9 35469.8 35428.5 35389.7 35354.1 35322.3 35294.9
          35935.9 35930.5 35919.9 35904.2 35883.6 35858.5 35829.3 35796.4 35760.4 35721.9 35681.5 35640
          35598 35556.4 35515.8 35476.9 35440.5 35407.1 35377.4 35351.7 35958.9 35953.8 35943.7 35928.8
          35909.3 35885.5 35857.9 35826.7 35792.7 35756.3 35718.3 35679.1 35639.6 35600.5 35562.4 35526
          35491.9 35460.7 35433 35409 35982.2 35977.4 35967.9 35953.8 35935.3 35912.8 35886.7 35857.3
          35825.2 35791 35755.2 35718.4 35681.3 35644.6 35609 35574.9 35543.1 35514.1 35488.3 35466.1
          36005.5 36001 35992 35978.6 35961.2 35940 35915.4 35887.7 35857.5 35825.3 35791.7 35757.2
          35722.5 35688.2 35654.9 35623.1 35593.6 35566.6 35542.6 35522.1 36028.4 36024.1 36015.6 36003.1
          35986.6 35966.7 35943.5 35917.5 35889.1 35858.9 35827.3 35795 35762.6 35730.5 35699.5 35669.9
          35642.4 35617.4 35595.2 35576.3 36050.5 36046.5 36038.5 36026.6 36011.2 35992.4 35970.6 35946.1
          35919.5 35891.1 35861.6 35831.3 35801 35771.1 35742.1 35714.6 35689.1 35665.9 35645.4 35627.9
          36071.6 36067.8 36060.2 36049.1 36034.5 36016.8 35996.3 35973.3 35948.2 35921.6 35893.9 35865.6
          35837.2 35809.2 35782.2 35756.6 35732.9 35711.4 35692.4 35676.3 36091.2 36087.6 36080.5 36069.9
          36056.2 36039.5 36020.1 35998.5 35974.9 35949.9 35923.9 35897.3 35870.7 35844.6 35819.3 35795.5
          35773.4 35753.4 35735.8 35720.9 36109.1 36105.7 36098.9 36089 36076 36060.2 36041.9 36021.4
          35999.2 35975.6 35951.1 35926.1 35901.1 35876.5 35852.9 35830.6 35809.9 35791.3 35774.9 35761.1
          36125 36121.8 36115.4 36105.9 36093.5 36078.5 36061.2 36041.8 36020.7 35998.3 35975.1 35951.5
          35927.9 35904.8 35882.5 35861.5 35842.1 35824.6 35809.4 35796.5 36138.7 36135.6 36129.4 36120.4
          36108.6 36094.3 36077.7 36059.2 36039.1 36017.8 35995.7 35973.2 35950.8 35928.8 35907.7 35887.9
          35869.5 35853.1 35838.7 35826.6 36149.9 36146.9 36141 36132.3 36120.9 36107.1 36091.2 36073.4
          36054.1 36033.7 36012.5 35991 35969.5 35948.5 35928.3 35909.4 35891.9 35876.2 35862.6 35851.2
          36158.4 36155.5 36149.8 36141.3 36130.3 36117 36101.5 36084.3 36065.6 36045.8 36025.3 36004.5
          35983.7 35963.4 35944 35925.7 35908.9 35893.9 35880.8 35869.8 36164.2 36161.3 36155.7 36147.5
          36136.7 36123.6 36108.5 36091.6 36073.3 36054 36033.9 36013.6 35993.3 35973.5 35954.6 35936.7
          35920.4 35905.7 35893 35882.4 36167.1 36164.3 36158.7 36150.5 36139.9 36126.9 36112 36095.3
          36077.2 36058.1 36038.3 36018.2 35998.2 35978.6 35959.9 35942.3 35926.1 35911.7 35899.1 35888.7
          35766.4 35759.3 35745.2 35724.4 35697 35663.6 35624.5 35580.5 35532.1 35480.2 35425.7 35369.3
          35312.2 35255.3 35199.6 35146.2 35096.1 35050.1 35009.1 34973.8 35765.1 35758 35743.8 35722.9
          35695.4 35661.9 35622.7 35578.5 35530 35477.9 35423.1 35366.5 35309.1 35251.9 35196 35142.3
          35091.9 35045.7 35004.5 34969 35762.4 35755.3 35741.1 35720 35692.4 35658.6 35619.1 35574.6
          35525.7 35473.2 35418 35360.9 35303 35245.4 35188.9 35134.7 35083.8 35037.1 34995.5 34959.6
          35758.7 35751.5 35737.1 35715.8 35687.9 35653.8 35614 35569 35519.6 35466.5 35410.7 35352.9
          35294.3 35235.9 35178.7 35123.8 35072.1 35024.7 34982.4 34946 35753.9 35746.6 35732.1 35710.6
          35682.4 35647.9 35607.5 35562 35511.9 35458.1 35401.4 35342.9 35283.4 35224 35165.8 35110
          35057.4 35009.1 34966 34928.9 35748.4 35741 35726.3 35704.5 35675.9 35640.9 35600.1 35553.8
          35503 35448.4 35390.8 35331.2 35270.7 35210.2 35151 35094 35040.4 34991.1 34947.1 34909.1
          35742.5 35735 35720.1 35698 35669 35633.5 35592 35545 35493.4 35437.9 35379.3 35318.7
          35257 35195.3 35134.9 35076.7 35021.9 34971.5 34926.4 34887.6 35736.4 35728.8 35713.6 35691.2
          35661.8 35625.8 35583.6 35536 35483.6 35427.1 35367.5 35305.8 35242.9 35180.1 35118.4 35058.9
          35002.9 34951.3 34905.2 34865.4 35730.4 35722.7 35707.4 35684.7 35654.9 35618.3 35575.6 35527.2
          35474 35416.6 35356 35293.2 35229.3 35165.2 35102.3 35041.7 34984.4 34931.7 34884.6 34843.9
          35725 35717.2 35701.7 35678.7 35648.5 35611.5 35568.2 35519.2 35465.2 35407.1 35345.6 35281.8
          35216.8 35151.7 35087.7 35025.9 34967.6 34913.8 34865.7 34824.1 35720.3 35712.5 35696.8 35673.6
          35643.1 35605.8 35562 35512.5 35457.9 35399 35336.8 35272.2 35206.3 35140.3 35075.3 35012.6
          34953.3 34898.6 34849.7 34807.3 35716.9 35709 35693.2 35669.9 35639.1 35601.5 35557.4 35507.5
          35452.4 35393 35330.2 35265 35198.5 35131.8 35066.1 35002.6 34942.6 34887.3 34837.6 34794.7
          35715 35707 35691.2 35667.7 35636.9 35599.1 35554.8 35504.6 35449.3 35389.6 35326.5 35260.9
          35194 35126.9 35060.7 34996.8 34936.4 34880.6 34830.5 34787.2 35714.7 35706.8 35691 35667.5
          35636.6 35598.8 35554.5 35504.3 35448.9 35389.2 35326.1 35260.4 35193.4 35126.2 35060 34995.9
          34935.4 34879.4 34829.2 34785.7 35716.5 35708.6 35692.8 35669.4 35638.6 35601 35556.8 35506.8
          35451.7 35392.2 35329.2 35263.9 35197.1 35130.2 35064.2 35000.4 34940 34884.3 34834.2 34790.8
          35720.4 35712.5 35696.9 35673.7 35643.2 35605.8 35562 35512.4 35457.7 35398.7 35336.3 35271.6
          35205.4 35139.1 35073.7 35010.6 34950.8 34895.6 34846 34803 35726.6 35718.8 35703.4 35680.4
          35650.3 35613.4 35570.1 35521.2 35467.2 35409 35347.5 35283.6 35218.5 35153.1 35088.8 35026.6
          34967.8 34913.5 34864.7 34822.4 35735.1 35727.5 35712.3 35689.7 35660.1 35623.8 35581.3 35533.2
          35480.2 35423.1 35362.8 35300.2 35236.3 35172.3 35109.3 35048.5 34991 34937.9 34890.2 34848.8
          35746.1 35738.6 35723.7 35701.6 35672.6 35637.1 35595.5 35548.5 35496.7 35441 35382.1 35321
          35258.8 35196.5 35135.2 35076.1 35020.2 34968.6 34922.3 34882.1 35759.3 35752 35737.5 35716
          35687.7 35653.1 35612.7 35566.9 35516.6 35462.4 35405.3 35346 35285.7 35225.4 35166.1 35108.9
          35054.9 35005.1 34960.5 34921.8 35774.8 35767.7 35753.6 35732.7 35705.3 35671.8 35632.6 35588.3
          35539.6 35487.3 35432 35374.9 35316.7 35258.6 35201.6 35146.6 35094.8 35047 35004.2 34967.1
          35792.3 35785.5 35771.9 35751.7 35725.3 35692.9 35655.1 35612.4 35565.5 35515.1 35462.1 35407.2
          35351.4 35295.7 35241.1 35188.6 35139.1 35093.5 35052.7 35017.4 35811.8 35805.2 35792.1 35772.7
          35747.3 35716.2 35679.9 35638.9 35594 35545.7 35494.9 35442.4 35389.2 35336.1 35284.1 35234.2
          35187.2 35143.9 35105.3 35071.8 35832.9 35826.6 35814 35795.4 35771.1 35741.3 35706.6 35667.5
          35624.6 35578.5 35530.1 35480.2 35429.6 35379.2 35329.9 35282.7 35238.2 35197.4 35161 35129.5
          35855.3 35849.3 35837.3 35819.6 35796.4 35768 35734.9 35697.7 35656.9 35613.1 35567.2 35519.9
          35472 35424.4 35377.9 35333.3 35291.5 35253.2 35219 35189.5 35878.8 35873 35861.7 35844.8
          35822.7 35795.8 35764.4 35729.1 35690.4 35649 35605.6 35560.9 35515.8 35470.9 35427.2 35385.4
          35346.2 35310.4 35278.5 35250.9 35903 35897.5 35886.7 35870.7 35849.8 35824.3 35794.6 35761.2
          35724.7 35685.7 35644.7 35602.7 35560.3 35518.2 35477.2 35438.1 35401.5 35368.1 35338.4 35312.9
          35927.5 35922.3 35912.1 35897 35877.3 35853.2 35825.1 35793.7 35759.2 35722.5 35684.1 35644.6
          35604.8 35565.5 35527.2 35490.7 35456.7 35425.6 35398.1 35374.4 35952 35947.1 35937.5 35923.2
          35904.6 35881.9 35855.5 35825.9 35793.5 35759 35723 35686 35648.8 35612.1 35576.4 35542.5
          35510.8 35482 35456.5 35434.7 35976.1 35971.5 35962.4 35949 35931.4 35910.1 35885.2 35857.4
          35827.1 35794.7 35760.9 35726.4 35691.7 35657.4 35624.2 35592.6 35563.3 35536.6 35513.1 35493
          35999.4 35995.1 35986.5 35973.9 35957.4 35937.3 35913.9 35887.8 35859.3 35829 35797.4 35765.1
          35732.7 35700.7 35669.8 35640.5 35613.3 35588.7 35567 35548.5 36021.6 36017.5 36009.4 35997.5
          35982 35963.1 35941.2 35916.6 35889.9 35861.4 35831.9 35801.6 35771.4 35741.6 35712.8 35685.6
          35660.3 35637.5 35617.5 35600.5 36042.3 36038.4 36030.8 36019.6 36004.9 35987.1 35966.5 35943.4
          35918.2 35891.5 35863.8 35835.5 35807.2 35779.3 35752.5 35727.1 35703.7 35682.5 35664 35648.3
          36061.1 36057.5 36050.3 36039.7 36025.8 36009 35989.5 35967.7 35944 35918.9 35892.8 35866.2
          35839.6 35813.5 35788.4 35764.7 35742.8 35723.2 35706 35691.5 36077.9 36074.5 36067.6 36057.6
          36044.4 36028.4 36009.9 35989.3 35966.9 35943.1 35918.4 35893.3 35868.2 35843.6 35820 35797.8
          35777.3 35758.9 35742.9 35729.4 36092.3 36089 36082.5 36072.9 36060.3 36045.1 36027.4 36007.8
          35986.4 35963.8 35940.3 35916.4 35892.7 35869.4 35847 35826 35806.7 35789.4 35774.3 35761.7
          36104.1 36101 36094.7 36085.4 36073.4 36058.7 36041.8 36022.9 36002.4 35980.7 35958.2 35935.4
          35912.6 35890.4 35869 35849 35830.6 35814.1 35799.9 35787.9 36113.2 36110.1 36104 36095
          36083.3 36069.1 36052.7 36034.4 36014.6 35993.6 35971.8 35949.8 35927.8 35906.3 35885.8 35866.5
          35848.8 35833 35819.3 35807.9 36119.2 36116.2 36110.3 36101.5 36090 36076.1 36060.1 36042.2
          36022.8 36002.3 35981 35959.5 35938 35917.1 35897.1 35878.3 35861.1 35845.7 35832.4 35821.3
          36122.3 36119.3 36113.5 36104.8 36093.4 36079.7 36063.8 36046.1 36026.9 36006.6 35985.7 35964.4
          35943.2 35922.5 35902.7 35884.2 35867.2 35852.1 35839 35828.1 35695.9 35688.3 35673.1 35650.6
          35621.1 35584.9 35542.7 35495.1 35442.8 35386.6 35327.4 35266.2 35204.2 35142.3 35081.8 35023.7
          34969.2 34919.2 34874.7 34836.4 35694.4 35686.8 35671.5 35648.9 35619.3 35583 35540.7 35492.8
          35440.3 35383.8 35324.4 35262.9 35200.6 35138.4 35077.5 35019.1 34964.3 34914 34869.2 34830.7
          35691.5 35683.8 35668.4 35645.7 35615.8 35579.3 35536.6 35488.4 35435.4 35378.5 35318.5 35256.5
          35193.5 35130.7 35069.2 35010.2 34954.7 34903.8 34858.5 34819.5 35687.3 35679.5 35664 35641
          35610.9 35573.9 35530.8 35482.1 35428.5 35370.8 35310.1 35247.2 35183.4 35119.7 35057.3 34997.3
          34940.9 34889.2 34843.1 34803.4 35682 35674.1 35658.4 35635.1 35604.6 35567.2 35523.5 35474
          35419.7 35361.2 35299.5 35235.6 35170.6 35105.8 35042.2 34981 34923.5 34870.7 34823.6 34783.1
          35675.9 35667.9 35652 35628.3 35597.4 35559.4 35515 35464.8 35409.5 35350 35287.2 35222.1
          35155.9 35089.7 35024.7 34962.2 34903.3 34849.2 34801 34759.4 35669.2 35661.1 35644.9 35620.9
          35589.5 35550.9 35505.8 35454.7 35398.4 35337.8 35273.8 35207.4 35139.8 35072.2 35005.7 34941.7
          34881.4 34825.9 34776.3 34733.7 35662.3 35654.1 35637.7 35613.3 35581.4 35542.2 35496.3 35444.3
          35387.1 35325.3 35260.1 35192.4 35123.3 35054.2 34986.2 34920.6 34858.7 34801.8 34750.9 34707.1
          35655.6 35647.2 35630.6 35605.9 35573.4 35533.6 35487 35434.2 35376 35313.2 35246.7 35177.7
          35107.2 35036.6 34967.1 34900 34836.6 34778.2 34726 34681 35649.4 35640.9 35624 35599
          35566.1 35525.8 35478.5 35424.9 35365.8 35302 35234.4 35164.2 35092.4 35020.5 34949.5 34881
          34816.2 34756.5 34703 34656.9 35644.1 35635.5 35618.4 35593.1 35559.9 35519.1 35471.2 35417
          35357.1 35292.4 35223.9 35152.7 35079.8 35006.7 34934.6 34864.8 34798.8 34737.9 34683.4 34636.2
          35640 35631.3 35614.2 35588.6 35555.1 35513.9 35465.7 35410.9 35350.5 35285.2 35215.9 35143.9