<?xml version="1.0"?>
<VTKFile type="UnstructuredGrid" version="0.1" byte_order="LittleEndian">
  <UnstructuredGrid>
    <Piece NumberOfCells="29600" NumberOfPoints="32718">
      <CellData Scalars="p (Pa)">
        <DataArray type="Float32" Name="p (Pa)" NumberOfComponents="1" format="ascii">
          35180.8 35160.6 35146.3 35137.6 35134.6 35136.8 35143.8 35155 35169.8 35187.2 35206.6 35227.1
          35247.9 35268.1 35286.9 35303.8 35318 35329.1 35336.8 35340.7 35177.1 35156.8 35142.4 35133.8
          35130.7 35132.9 35140 35151.3 35166.1 35183.6 35203.1 35223.7 35244.6 35264.9 35283.8 35300.8
          35315.1 35326.2 35333.9 35337.8 35169.8 35149.4 35134.9 35126.2 35123.1 35125.4 35132.5 35143.9
          35158.9 35176.6 35196.3 35217.1 35238.2 35258.7 35277.8 35294.9 35309.3 35320.6 35328.4 35332.3
          35159.4 35138.8 35124.1 35115.3 35112.2 35114.5 35121.8 35133.3 35148.5 35166.5 35186.5 35207.6
          35229 35249.7 35269.1 35286.4 35301 35312.5 35320.3 35324.3 35146.4 35125.4 35110.5 35101.5
          35098.4 35100.8 35108.2 35120 35135.5 35153.8 35174.2 35195.6 35217.3 35238.4 35258.1 35275.7
          35290.6 35302.2 35310.2 35314.2 35131.3 35110 35094.8 35085.7 35082.6 35085 35092.6 35104.7
          35120.4 35139.1 35159.9 35181.8 35203.9 35225.4 35245.5 35263.4 35278.5 35290.3 35298.4 35302.6
          35115 35093.3 35077.8 35068.6 35065.4 35067.9 35075.7 35088 35104.1 35123.2 35144.4 35166.7
          35189.3 35211.2 35231.7 35249.9 35265.3 35277.4 35285.7 35289.9 35098.4 35076.3 35060.5 35051.1
          35047.8 35050.4 35058.3 35070.9 35087.4 35106.9 35128.4 35151.2 35174.2 35196.6 35217.4 35236.1
          35251.8 35264.1 35272.5 35276.8 35082.4 35059.8 35043.7 35034.1 35030.8 35033.5 35041.5 35054.3
          35071.1 35091 35113 35136.2 35159.6 35182.3 35203.6 35222.5 35238.5 35251 35259.6 35264
          35067.9 35044.9 35028.6 35018.8 35015.4 35018.1 35026.2 35039.2 35056.3 35076.5 35098.8 35122.4
          35146.2 35169.3 35190.9 35210.1 35226.4 35239 35247.7 35252.2 35055.9 35032.6 35016 35006
          35002.5 35005.2 35013.5 35026.6 35043.8 35064.3 35086.9 35110.7 35134.8 35158.2 35180.1 35199.5
          35216 35228.8 35237.6 35242.1 35047.3 35023.7 35006.9 34996.7 34993.2 34995.8 35004.1 35017.3
          35034.7 35055.2 35078 35102.1 35126.3 35149.9 35171.9 35191.6 35208.1 35221.1 35230 35234.5
          35042.8 35019.1 35002.1 34991.8 34988.2 34990.7 34999 35012.2 35029.6 35050.2 35073 35097.1
          35121.5 35145.1 35167.2 35186.9 35203.5 35216.5 35225.4 35229.9 35043.3 35019.4 35002.3 34992
          34988.2 34990.7 34998.9 35012 35029.3 35049.8 35072.5 35096.5 35120.8 35144.4 35166.4 35186.1
          35202.7 35215.6 35224.5 35229 35049 35025.3 35008.2 34997.8 34993.9 34996.3 35004.3 35017.2
          35034.3 35054.6 35077.1 35100.9 35125 35148.3 35170.2 35189.7 35206.1 35219 35227.8 35232.3
          35060.6 35036.9 35019.9 35009.6 35005.6 35007.8 35015.6 35028.3 35045 35065 35087.1 35110.6
          35134.3 35157.3 35178.8 35198 35214.3 35226.9 35235.6 35240.1 35077.9 35054.7 35037.8 35027.5
          35023.6 35025.6 35033.1 35045.4 35061.7 35081.2 35102.9 35125.8 35149 35171.6 35192.6 35211.5
          35227.4 35239.8 35248.3 35252.6 35101.2 35078.4 35061.9 35051.7 35047.7 35049.6 35056.8 35068.6
          35084.5 35103.3 35124.4 35146.7 35169.2 35191.2 35211.7 35230 35245.5 35257.6 35265.9 35270.2
          35130.2 35107.9 35091.8 35081.8 35077.9 35079.5 35086.4 35097.8 35113.1 35131.3 35151.6 35173.1
          35194.9 35216.1 35236 35253.7 35268.7 35280.5 35288.5 35292.6 35164.6 35143 35127.4 35117.6
          35113.7 35115.2 35121.8 35132.7 35147.2 35164.7 35184.2 35204.8 35225.8 35246.2 35265.3 35282.4
          35296.8 35308.1 35315.9 35319.8 35203.9 35183.1 35168 35158.6 35154.8 35156.1 35162.3 35172.7
          35186.6 35203.2 35221.8 35241.6 35261.6 35281.1 35299.4 35315.7 35329.5 35340.4 35347.8 35351.5
          35247.4 35227.6 35213.1 35204.1 35200.4 35201.7 35207.5 35217.3 35230.5 35246.3 35264 35282.7
          35301.8 35320.4 35337.8 35353.3 35366.5 35376.8 35383.8 35387.4 35294.7 35275.8 35262.1 35253.5
          35250 35251.1 35256.6 35265.9 35278.3 35293.3 35310 35327.8 35345.8 35363.4 35379.9 35394.6
          35407.1 35416.9 35423.6 35427 35344.9 35327 35314.1 35306 35302.6 35303.7 35308.9 35317.6
          35329.4 35343.5 35359.2 35376 35393 35409.6 35425.1 35439.1 35450.8 35460.1 35466.4 35469.6
          35397.2 35380.4 35368.3 35360.7 35357.6 35358.6 35363.5 35371.7 35382.8 35396.1 35410.9 35426.6
          35442.6 35458.2 35472.9 35486 35497 35505.7 35511.6 35514.7 35450.9 35435.2 35423.9 35416.9
          35414 35415 35419.7 35427.4 35437.8 35450.3 35464.2 35479 35494 35508.6 35522.3 35534.6
          35545 35553.1 35558.7 35561.5 35505.2 35490.6 35480.1 35473.6 35471 35472.1 35476.5 35483.8
          35493.5 35505.2 35518.3 35532.1 35546.2 35559.9 35572.7 35584.2 35593.9 35601.5 35606.7 35609.4
          35559.2 35545.7 35536 35530.1 35527.8 35528.9 35533.1 35540 35549.2 35560.2 35572.4 35585.3
          35598.5 35611.3 35623.3 35634 35643.1 35650.2 35655.1 35657.5 35612.3 35599.9 35591 35585.6
          35583.6 35584.7 35588.8 35595.3 35603.9 35614.2 35625.7 35637.8 35650.1 35662.1 35673.3 35683.3
          35691.8 35698.4 35703 35705.3 35663.7 35652.3 35644.1 35639.2 35637.5 35638.8 35642.6 35648.9
          35657 35666.7 35677.5 35688.8 35700.3 35711.5 35722 35731.3 35739.2 35745.4 35749.7 35751.8
          35712.7 35702.2 35694.8 35690.4 35689 35690.3 35694 35700 35707.7 35716.8 35726.9 35737.6
          35748.4 35758.8 35768.6 35777.4 35784.8 35790.6 35794.5 35796.5 35758.7 35749 35742.3 35738.4
          35737.2 35738.6 35742.3 35748 35755.3 35763.9 35773.4 35783.5 35793.6 35803.4 35812.6 35820.8
          35827.7 35833.1 35836.9 35838.8 35801 35792.2 35786.1 35782.6 35781.7 35783.1 35786.7 35792.2
          35799.2 35807.4 35816.4 35825.8 35835.4 35844.6 35853.3 35861 35867.5 35872.6 35876.1 35877.8
          35839.3 35831.1 35825.6 35822.5 35821.8 35823.3 35826.9 35832.1 35838.8 35846.6 35855.2 35864.2
          35873.2 35881.9 35890.1 35897.4 35903.5 35908.3 35911.6 35913.3 35872.9 35865.4 35860.3 35857.6
          35857.1 35858.7 35862.1 35867.3 35873.7 35881.2 35889.4 35897.9 35906.5 35914.8 35922.6 35929.5
          35935.3 35939.9 35943 35944.6 35901.6 35894.6 35889.9 35887.4 35887.1 35888.8 35892.2 35897.2
          35903.4 35910.6 35918.5 35926.7 35934.9 35942.9 35950.3 35956.9 35962.5 35966.8 35969.8 35971.3
          35924.9 35918.3 35914 35911.7 35911.5 35913.3 35916.7 35921.5 35927.6 35934.6 35942.2 35950.1
          35958.1 35965.8 35972.9 35979.3 35984.6 35988.8 35991.7 35993.1 35942.7 35936.4 35932.2 35930.2
          35930.1 35931.9 35935.3 35940.1 35946 35952.8 35960.3 35968 35975.7 35983.2 35990.1 35996.3
          36001.5 36005.6 36008.3 36009.7 35954.6 35948.5 35944.6 35942.6 35942.6 35944.4 35947.8 35952.5
          35958.4 35965.1 35972.4 35980 35987.6 35994.9 36001.7 36007.8 36012.9 36016.8 36019.6 36020.9
          35960.6 35954.6 35950.8 35948.9 35948.9 35950.7 35954.1 35958.8 35964.6 35971.3 35978.5 35986
          35993.6 36000.8 36007.5 36013.5 36018.6 36022.5 36025.2 36026.6 35131.9 35111.3 35096.7 35088.1
          35085.1 35087.6 35095 35106.7 35122 35140.1 35160.2 35181.4 35202.8 35223.7 35243.1 35260.5
          35275.2 35286.7 35294.5 35298.5 35128 35107.3 35092.7 35084 35081 35083.5 35090.9 35102.7
          35118.1 35136.3 35156.6 35177.9 35199.4 35220.4 35239.9 35257.4 35272.1 35283.7 35291.6 35295.6
          35120.3 35099.5 35084.8 35076 35073 35075.6 35083.1 35095 35110.6 35129 35149.4 35171
          35192.7 35213.9 35233.6 35251.3 35266.2 35277.8 35285.8 35289.9 35109.4 35088.3 35073.3 35064.5
          35061.5 35064.1 35071.8 35083.9 35099.7 35118.4 35139.1 35161 35183.1 35204.5 35224.6 35242.5
          35257.6 35269.4 35277.5 35281.6 35095.6 35074.2 35059 35050 35047 35049.7 35057.5 35069.9
          35086 35105.1 35126.2 35148.4 35170.9 35192.8 35213.2 35231.3 35246.7 35258.7 35266.9 35271.1
          35079.6 35057.9 35042.4 35033.3 35030.2 35033 35041 35053.7 35070.2 35089.7 35111.2 35133.9
          35156.9 35179.1 35199.9 35218.5 35234.1 35246.3 35254.7 35259 35062.4 35040.2 35024.4 35015.1
          35012.1 35014.9 35023.2 35036.1 35053 35072.9 35094.9 35118.1 35141.5 35164.3 35185.5 35204.4
          35220.4 35232.9 35241.4 35245.8 35044.8 35022.1 35006.1 34996.6 34993.5 34996.4 35004.8 35018.1
          35035.3 35055.7 35078.2 35101.9 35125.8 35149 35170.7 35190 35206.2 35219 35227.7 35232.1
          35027.8 35004.7 34988.3 34978.6 34975.4 34978.4 34987 35000.5 35018.1 35038.9 35061.9 35086
          35110.4 35134.1 35156.1 35175.8 35192.4 35205.4 35214.2 35218.8 35012.3 34988.8 34972.1 34962.2
          34959 34962 34970.8 34984.5 35002.4 35023.5 35046.9 35071.5 35096.3 35120.3 35142.8 35162.8
          35179.6 35192.8 35201.8 35206.4 34999.5 34975.6 34958.6 34948.5 34945.2 34948.3 34957.1 34971
          34989.2 35010.6 35034.2 35059.1 35084.3 35108.6 35131.4 35151.6 35168.7 35182 35191.2 35195.8
          34990.2 34966 34948.7 34938.5 34935.1 34938.1 34947 34961 34979.3 35000.9 35024.7 35049.9
          35075.2 35099.8 35122.7 35143.1 35160.4 35173.8 35183 35187.7 34985.2 34960.8 34943.4 34933
          34929.5 34932.5 34941.4 34955.4 34973.7 34995.3 35019.2 35044.4 35069.9 35094.5 35117.5 35138
          35155.3 35168.8 35178.1 35182.8 34985.3 34960.8 34943.3 34932.9 34929.2 34932.1 34940.9 34954.8
          34973 34994.5 35018.4 35043.5 35068.9 35093.5 35116.5 35136.9 35154.2 35167.7 35176.9 35181.6
          34991 34966.5 34949 34938.5 34934.8 34937.6 34946.2 34959.9 34977.9 34999.2 35022.8 35047.7
          35072.9 35097.3 35120 35140.4 35157.5 35170.9 35180 35184.7 35002.6 34978.4 34961 34950.5
          34946.7 34949.3 34957.6 34971.1 34988.7 35009.7 35032.9 35057.4 35082.2 35106.2 35128.7 35148.7
          35165.6 35178.8 35187.9 35192.5 35020.4 34996.5 34979.3 34968.8 34965 34967.4 34975.5 34988.5
          35005.7 35026.2 35048.9 35072.9 35097.1 35120.7 35142.6 35162.3 35178.8 35191.8 35200.6 35205.1
          35044.4 35020.9 35004 34993.7 34989.8 34992 34999.7 35012.3 35029 35048.8 35070.9 35094.1
          35117.7 35140.6 35162 35181.1 35197.2 35209.8 35218.5 35222.9 35074.2 35051.3 35034.8 35024.7
          35020.8 35022.8 35030.2 35042.3 35058.3 35077.4 35098.7 35121.2 35143.9 35166.1 35186.8 35205.3
          35220.9 35233.1 35241.4 35245.7 35109.6 35087.4 35071.4 35061.6 35057.7 35059.6 35066.6 35078.1
          35093.4 35111.7 35132.1 35153.7 35175.6 35196.9 35216.8 35234.5 35249.5 35261.3 35269.3 35273.4
          35150 35128.7 35113.3 35103.8 35100.1 35101.7 35108.3 35119.3 35133.9 35151.3 35170.8 35191.4
          35212.2 35232.6 35251.6 35268.6 35283 35294.2 35301.9 35305.8 35194.9 35174.6 35159.9 35150.7
          35147.1 35148.6 35154.8 35165.2 35179 35195.6 35214 35233.6 35253.4 35272.8 35290.9 35307
          35320.7 35331.4 35338.7 35342.5 35243.6 35224.3 35210.3 35201.6 35198.1 35199.5 35205.4 35215.2
          35228.2 35243.9 35261.3 35279.8 35298.6 35316.9 35334 35349.3 35362.3 35372.4 35379.3 35382.9
          35295.3 35277 35263.8 35255.6 35252.3 35253.7 35259.2 35268.4 35280.7 35295.4 35311.9 35329.3
          35347 35364.2 35380.4 35394.8 35407 35416.6 35423.1 35426.5 35349.1 35332 35319.6 35312
          35308.9 35310.2 35315.4 35324 35335.6 35349.4 35364.9 35381.3 35397.9 35414.1 35429.2 35442.8
          35454.3 35463.3 35469.4 35472.6 35404.3 35388.3 35376.8 35369.7 35366.9 35368.2 35373.1 35381.2
          35392.1 35405.1 35419.6 35434.9 35450.5 35465.7 35479.9 35492.6 35503.3 35511.8 35517.5 35520.5
          35460.1 35445.3 35434.6 35428.1 35425.5 35426.8 35431.5 35439.2 35449.4 35461.5 35475.1 35489.4
          35504 35518.2 35531.5 35543.4 35553.4 35561.3 35566.7 35569.4 35515.7 35501.9 35492.1 35486.1
          35483.9 35485.2 35489.6 35496.9 35506.5 35517.9 35530.6 35544 35557.6 35570.9 35583.3 35594.4
          35603.8 35611.1 35616.1 35618.7 35570.2 35557.5 35548.5 35543.1 35541.2 35542.5 35546.8 35553.6
          35562.7 35573.4 35585.2 35597.8 35610.5 35622.9 35634.5 35644.8 35653.6 35660.4 35665.1 35667.5
          35622.9 35611.3 35603.1 35598.2 35596.6 35598 35602.1 35608.6 35617.1 35627.1 35638.3 35650
          35661.9 35673.5 35684.3 35694 35702.1 35708.5 35712.9 35715.1 35673.2 35662.5 35655.1 35650.7
          35649.4 35650.8 35654.8 35661 35669 35678.5 35689 35700 35711.1 35722 35732.1 35741.1
          35748.7 35754.7 35758.8 35760.8 35720.4 35710.6 35703.8 35699.9 35698.8 35700.4 35704.3 35710.2
          35717.8 35726.8 35736.6 35747 35757.4 35767.6 35777.1 35785.5 35792.6 35798.2 35802 35804
          35763.8 35754.9 35748.7 35745.2 35744.4 35746 35749.8 35755.5 35762.8 35771.3 35780.6 35790.4
          35800.2 35809.8 35818.7 35826.6 35833.3 35838.5 35842.1 35844 35803 35794.8 35789.2 35786.1
          35785.5 35787.2 35790.9 35796.4 35803.4 35811.5 35820.3 35829.6 35838.9 35847.9 35856.3 35863.8
          35870.1 35875.1 35878.5 35880.2 35837.5 35829.9 35824.8 35822.1 35821.7 35823.4 35827.1 35832.4
          35839.1 35846.8 35855.3 35864.1 35873 35881.6 35889.5 35896.6 35902.6 35907.3 35910.5 35912.2
          35866.9 35859.8 35855.1 35852.7 35852.5 35854.3 35857.9 35863.1 35869.5 35877 35885.1 35893.6
          35902.1 35910.3 35917.9 35924.7 35930.4 35934.9 35937.9 35939.5 35890.8 35884.2 35879.8 35877.6
          35877.5 35879.4 35882.9 35888 35894.3 35901.5 35909.4 35917.6 35925.7 35933.6 35941 35947.5
          35953 35957.3 35960.3 35961.8 35909 35902.6 35898.5 35896.5 35896.5 35898.4 35902 35907
          35913.1 35920.2 35927.8 35935.8 35943.8 35951.4 35958.6 35964.9 35970.3 35974.4 35977.3 35978.7
          35921.2 35915.1 35911.1 35909.2 35909.3 35911.2 35914.8 35919.7 35925.8 35932.7 35940.3 35948.1
          35955.9 35963.4 35970.4 35976.6 35981.9 35985.9 35988.7 35990.2 35927.3 35921.3 35917.5 35915.6
          35915.8 35917.7 35921.2 35926.1 35932.2 35939.1 35946.5 35954.3 35962 35969.4 35976.4 35982.5
          35987.7 35991.7 35994.5 35995.9 35053.4 35032.1 35017 35008.2 35005.5 35008.4 35016.6 35029.3
          35045.8 35065.3 35086.7 35109.4 35132.2 35154.4 35175.1 35193.5 35209.1 35221.3 35229.6 35233.9
          35049 35027.6 35012.5 35003.7 35000.9 35003.9 35012.2 35025 35041.6 35061.1 35082.8 35105.5
          35128.5 35150.8 35171.6 35190.1 35205.8 35218 35226.4 35230.7 35040.6 35019 35003.7 34994.8
          34992.1 34995.2 35003.5 35016.5 35033.3 35053.1 35075 35098 35121.2 35143.8 35164.8 35183.5
          35199.4 35211.7 35220.2 35224.5 35028.4 35006.5 34991.1 34982.1 34979.3 34982.5 34991 35004.2
          35021.4 35041.5 35063.7 35087.1 35110.7 35133.6 35155 35174 35190.1 35202.6 35211.2 35215.6
          35013.1 34990.9 34975.2 34966 34963.3 34966.6 34975.3 34988.8 35006.3 35026.9 35049.6 35073.4
          35097.5 35120.9 35142.6 35162 35178.4 35191.2 35199.9 35204.4 34995.5 34972.7 34956.7 34947.5
          34944.7 34948.1 34957.1 34970.9 34988.9 35009.9 35033.2 35057.6 35082.2 35106 35128.3 35148.1
          35164.8 35177.8 35186.8 35191.3 34976.3 34953.1 34936.7 34927.3 34924.5 34928 34937.3 34951.5
          34969.9 34991.5 35015.3 35040.3 35065.5 35089.9 35112.6 35132.9 35149.9 35163.3 35172.4 35177.1
          34956.6 34932.9 34916.2 34906.6 34903.8 34907.4 34916.9 34931.5 34950.3 34972.5 34996.9 35022.4
          35048.2 35073.2 35096.4 35117.1 35134.6 35148.2 35157.5 35162.3 34937.5 34913.3 34896.2 34886.4
          34883.5 34887.3 34897 34912 34931.3 34953.9 34978.8 35005 35031.3 35056.8 35080.6 35101.7
          35119.5 35133.4 35142.9 35147.8 34920.1 34895.4 34878 34868 34865.1 34868.9 34878.8 34894.1
          34913.7 34936.8 34962.2 34988.9 35015.7 35041.7 35065.9 35087.4 35105.5 35119.7 35129.4 35134.3
          34905.5 34880.4 34862.7 34852.4 34849.4 34853.3 34863.3 34878.8 34898.8 34922.2 34948 34975.1
          35002.3 35028.7 35053.2 35075.1 35093.5 35107.8 35117.7 35122.7 34894.7 34869.2 34851.2 34840.8
          34837.7 34841.6 34851.7 34867.3 34887.5 34911.2 34937.2 34964.6 34992.1 35018.7 35043.5 35065.6
          35084.2 35098.7 35108.6 35113.6 34888.6 34862.9 34844.7 34834.2 34831 34834.8 34844.9 34860.5
          34880.8 34904.5 34930.7 34958.1 34985.8 35012.6 35037.5 35059.6 35078.3 35092.9 35102.8 35107.9
          34888 34862.2 34843.9 34833.2 34829.9 34833.6 34843.7 34859.2 34879.4 34903 34929.2 34956.6
          34984.2 35010.9 35035.8 35057.9 35076.6 35091.1 35101.1 35106.2 34893.5 34867.8 34849.5 34838.7
          34835.3 34838.8 34848.7 34864 34883.9 34907.4 34933.3 34960.4 34987.8 35014.3 35039 35061
          35079.5 35094 35103.9 35108.9 34905.5 34879.9 34861.7 34850.9 34847.4 34850.8 34860.4 34875.4
          34894.9 34918 34943.4 34970.2 34997.1 35023.3 35047.6 35069.3 35087.6 35101.8 35111.6 35116.5
          34924.1 34898.9 34880.9 34870.2 34866.6 34869.7 34879 34893.6 34912.6 34935.1 34959.9 34986.1
          35012.4 35038 35061.9 35083.1 35101 35115 35124.5 35129.4 34949.3 34924.6 34906.9 34896.3
          34892.7 34895.6 34904.4 34918.5 34936.9 34958.7 34982.8 35008.2 35033.8 35058.7 35081.9 35102.5
          35120 35133.6 35142.9 35147.6 34980.9 34956.8 34939.6 34929.2 34925.5 34928.2 34936.6 34950.1
          34967.8 34988.8 35012 35036.5 35061.2 35085.2 35107.6 35127.6 35144.4 35157.6 35166.6 35171.2
          35018.4 34995.1 34978.4 34968.3 34964.7 34967.1 34975.1 34987.9 35004.8 35024.9 35047.1 35070.6
          35094.3 35117.3 35138.8 35158 35174.3 35186.9 35195.6 35200 35061.3 35038.9 35022.9 35013.1
          35009.5 35011.8 35019.3 35031.5 35047.5 35066.6 35087.7 35110.1 35132.7 35154.7 35175.3 35193.6
          35209.1 35221.2 35229.5 35233.7 35108.9 35087.5 35072.2 35062.9 35059.4 35061.4 35068.5 35080
          35095.2 35113.2 35133.3 35154.5 35176 35196.8 35216.4 35233.8 35248.5 35260 35267.9 35271.9
          35160.4 35140.2 35125.7 35116.8 35113.5 35115.4 35122 35132.8 35147.1 35164.2 35183.1 35203.1
          35223.4 35243.1 35261.5 35278 35291.9 35302.8 35310.3 35314.1 35215.1 35196 35182.3 35174
          35170.9 35172.7 35178.9 35189.1 35202.5 35218.5 35236.3 35255.1 35274.2 35292.8 35310.1 35325.6
          35338.7 35349 35356 35359.6 35272.1 35254.2 35241.4 35233.6 35230.7 35232.4 35238.3 35247.8
          35260.4 35275.4 35292.1 35309.8 35327.7 35345.1 35361.3 35375.9 35388.2 35397.8 35404.4 35407.8
          35330.4 35313.7 35301.8 35294.6 35292 35293.7 35299.2 35308.2 35320 35334 35349.7 35366.2
          35382.9 35399.2 35414.4 35428 35439.5 35448.5 35454.7 35457.8 35389.2 35373.8 35362.8 35356.2
          35353.9 35355.5 35360.8 35369.2 35380.3 35393.4 35408 35423.4 35439.1 35454.3 35468.5 35481.2
          35491.9 35500.3 35506.1 35509 35447.8 35433.6 35423.5 35417.5 35415.4 35417 35422.1 35430
          35440.4 35452.7 35466.3 35480.7 35495.3 35509.5 35522.7 35534.6 35544.6 35552.4 35557.8 35560.5
          35505.2 35492.1 35482.9 35477.5 35475.7 35477.4 35482.2 35489.7 35499.5 35511 35523.7 35537.2
          35550.8 35564 35576.3 35587.3 35596.7 35603.9 35608.9 35611.5 35560.7 35548.7 35540.3 35535.5
          35534 35535.7 35540.3 35547.5 35556.6 35567.5 35579.4 35592 35604.6 35617 35628.5 35638.7
          35647.4 35654.2 35658.9 35661.2 35613.6 35602.6 35595 35590.7 35589.5 35591.3 35595.7 35602.5
          35611.2 35621.3 35632.5 35644.3 35656.2 35667.7 35678.4 35688 35696.1 35702.4 35706.8 35709
          35663.2 35653.1 35646.2 35642.4 35641.5 35643.4 35647.7 35654.1 35662.4 35671.9 35682.5 35693.5
          35704.6 35715.4 35725.5 35734.4 35742 35747.9 35752 35754 35708.8 35699.6 35693.4 35690
          35689.4 35691.3 35695.5 35701.7 35709.5 35718.6 35728.5 35738.9 35749.4 35759.5 35769 35777.4
          35784.5 35790 35793.8 35795.7 35750 35741.6 35735.9 35732.9 35732.5 35734.5 35738.6 35744.6
          35752 35760.7 35770.1 35780 35789.8 35799.4 35808.3 35816.2 35822.9 35828.1 35831.7 35833.5
          35786.2 35778.4 35773.3 35770.6 35770.4 35772.5 35776.5 35782.3 35789.4 35797.7 35806.7 35816.1
          35825.5 35834.6 35843 35850.5 35856.8 35861.8 35865.2 35866.9 35817 35809.8 35805.1 35802.7
          35802.7 35804.8 35808.8 35814.4 35821.3 35829.2 35837.9 35846.9 35855.9 35864.5 35872.6 35879.8
          35885.8 35890.5 35893.7 35895.4 35842.1 35835.3 35830.9 35828.8 35828.9 35831.1 35835 35840.5
          35847.2 35854.9 35863.3 35871.9 35880.6 35889 35896.7 35903.6 35909.4 35913.9 35917 35918.6
          35861.1 35854.7 35850.6 35848.7 35848.9 35851 35854.9 35860.3 35866.9 35874.4 35882.6 35891
          35899.4 35907.5 35915.1 35921.7 35927.4 35931.8 35934.8 35936.3 35873.9 35867.7 35863.8 35862
          35862.3 35864.5 35868.3 35873.7 35880.2 35887.6 35895.6 35903.8 35912.1 35920 35927.4 35934
          35939.5 35943.8 35946.7 35948.2 35880.4 35874.3 35870.4 35868.7 35869 35871.2 35875.1 35880.4
          35886.8 35894.2 35902.1 35910.3 35918.5 35926.3 35933.6 35940.1 35945.6 35949.8 35952.7 35954.2
          34944.7 34922.2 34906.4 34897.5 34895.1 34898.8 34908.2 34922.5 34940.8 34962.3 34985.9 35010.7
          35035.7 35059.9 35082.4 35102.5 35119.5 35132.7 35141.8 35146.4 34939.7 34917.1 34901.3 34892.3
          34889.9 34893.7 34903.1 34917.5 34936 34957.6 34981.4 35006.4 35031.5 35055.9 35078.6 35098.8
          35115.9 35129.2 35138.3 35142.9 34930 34907.1 34891.2 34882.1 34879.7 34883.6 34893.2 34907.8
          34926.6 34948.5 34972.6 34997.9 35023.4 35048 35071 35091.5 35108.7 35122.2 35131.4 35136.1
          34916 34892.8 34876.6 34867.4 34865 34869.1 34878.9 34893.8 34912.9 34935.3 34959.9 34985.6
          35011.6 35036.7 35060.1 35080.9 35098.4 35112.1 35121.5 35126.2 34898.3 34874.7 34858.2 34848.9
          34846.5 34850.7 34860.9 34876.2 34895.8 34918.7 34943.8 34970.2 34996.7 35022.3 35046.2 35067.5
          35085.4 35099.4 35108.9 35113.8 34877.8 34853.7 34836.8 34827.4 34825 34829.4 34839.9 34855.7
          34875.8 34899.4 34925.2 34952.2 34979.4 35005.7 35030.1 35051.9 35070.2 35084.5 35094.3 35099.3
          34855.6 34830.8 34813.6 34804 34801.6 34806.2 34817 34833.3 34854.1 34878.3 34904.8 34932.6
          34960.5 34987.5 35012.6 35034.9 35053.7 35068.3 35078.3 35083.4 34832.6 34807.3 34789.7 34779.8
          34777.5 34782.2 34793.4 34810.2 34831.6 34856.5 34883.8 34912.3 34940.9 34968.6 34994.3 35017.2
          35036.5 35051.5 35061.7 35066.9 34810.3 34784.3 34766.3 34756.2 34753.9 34758.8 34770.3 34787.5
          34809.5 34835.1 34863.1 34892.3 34921.7 34950 34976.4 34999.8 35019.5 35034.8 35045.3 35050.7
          34789.7 34763.2 34744.8 34734.5 34732.1 34737.2 34749 34766.6 34789.1 34815.2 34843.9 34873.8
          34903.8 34932.8 34959.6 34983.6 35003.7 35019.3 35030 35035.5 34772.3 34745.3 34726.5 34716
          34713.5 34718.6 34730.6 34748.6 34771.5 34798.1 34827.3 34857.7 34888.3 34917.8 34945.1 34969.4
          34989.9 35005.8 35016.7 35022.2 34759.2 34731.7 34712.6 34701.9 34699.3 34704.5 34716.6 34734.8
          34757.9 34784.9 34814.4 34845.3 34876.2 34906 34933.7 34958.3 34979 34995.1 35006.1 35011.7
          34751.3 34723.6 34704.2 34693.3 34690.6 34695.8 34707.9 34726.2 34749.4 34776.6 34806.3 34837.3
          34868.4 34898.4 34926.3 34951 34971.8 34988 34999.1 35004.8 34749.7 34721.8 34702.2 34691.2
          34688.4 34693.4 34705.5 34723.7 34746.9 34774 34803.6 34834.6 34865.7 34895.7 34923.6 34948.3
          34969.1 34985.4 34996.5 35002.1 34754.9 34727 34707.4 34696.3 34693.4 34698.2 34710.1 34728
          34751 34777.8 34807.2 34837.9 34868.8 34898.6 34926.2 34950.8 34971.5 34987.6 34998.7 35004.3
          34767.4 34739.7 34720.2 34709.1 34706 34710.6 34722.1 34739.7 34762.2 34788.6 34817.5 34847.7
          34878.1 34907.5 34934.8 34959 34979.4 34995.4 35006.2 35011.8 34787.3 34759.9 34740.7 34729.6
          34726.5 34730.8 34741.9 34758.9 34780.9 34806.5 34834.8 34864.3 34894 34922.8 34949.5 34973.2
          34993.2 35008.8 35019.5 35024.9 34814.5 34787.8 34768.9 34757.9 34754.7 34758.7 34769.3 34785.7
          34806.9 34831.7 34859.1 34887.7 34916.6 34944.5 34970.4 34993.5 35013 35028.2 35038.6 35043.9
          34848.8 34822.8 34804.4 34793.6 34790.3 34794 34804.1 34819.8 34840.1 34864 34890.3 34917.9
          34945.7 34972.6 34997.7 35020 35038.8 35053.4 35063.5 35068.6 34889.6 34864.5 34846.7 34836.2
          34832.9 34836.3 34845.9 34860.8 34880.1 34902.9 34928 34954.4 34981 35006.8 35030.9 35052.3
          35070.3 35084.4 35094.1 35099 34936.3 34912.2 34895.2 34885.1 34881.8 34884.9 34893.9 34908
          34926.3 34947.9 34971.8 34996.9 35022.2 35046.8 35069.7 35090.1 35107.3 35120.8 35130 35134.7
          34988.1 34965.2 34948.9 34939.3 34936.1 34939 34947.4 34960.6 34977.9 34998.3 35020.9 35044.6
          35068.6 35091.9 35113.6 35132.9 35149.3 35162 35170.8 35175.2 35044.1 35022.4 35007.1 34997.9
          34994.9 34997.5 35005.4 35017.9 35034.1 35053.3 35074.5 35096.9 35119.5 35141.4 35161.9 35180.2
          35195.6 35207.6 35215.9 35220.1 35103.4 35083.1 35068.6 35060.1 35057.2 35059.7 35067.1 35078.8
          35094 35111.9 35131.9 35152.8 35174 35194.6 35213.9 35231 35245.5 35256.8 35264.6 35268.6
          35165.1 35146.1 35132.7 35124.7 35122.1 35124.4 35131.4 35142.3 35156.5 35173.3 35192 35211.6
          35231.4 35250.7 35268.7 35284.7 35298.3 35308.9 35316.2 35319.9 35228.2 35210.6 35198.1 35190.8
          35188.4 35190.7 35197.2 35207.5 35220.8 35236.5 35253.9 35272.2 35290.7 35308.6 35325.4 35340.4
          35353.1 35363 35369.8 35373.2 35291.9 35275.6 35264.1 35257.4 35255.3 35257.5 35263.7 35273.3
          35285.7 35300.4 35316.6 35333.7 35350.9 35367.6 35383.3 35397.2 35409 35418.2 35424.6 35427.8
          35355 35340 35329.5 35323.5 35321.7 35323.9 35329.8 35338.8 35350.4 35364.1 35379.2 35395.1
          35411.1 35426.7 35441.3 35454.2 35465.2 35473.8 35479.7 35482.6 35416.9 35403.2 35393.6 35388.2
          35386.7 35388.9 35394.5 35403 35413.9 35426.7 35440.8 35455.6 35470.5 35485 35498.5 35510.6
          35520.8 35528.7 35534.2 35537 35476.6 35464.1 35455.4 35450.6 35449.4 35451.7 35457 35465.1
          35475.3 35487.3 35500.4 35514.2 35528.2 35541.6 35554.2 35565.4 35574.9 35582.3 35587.4 35590
          35533.5 35522.1 35514.2 35510 35509.1 35511.4 35516.5 35524.2 35533.8 35545 35557.4 35570.3
          35583.2 35595.8 35607.5 35618 35626.8 35633.7 35638.4 35640.8 35586.7 35576.3 35569.3 35565.5
          35564.9 35567.3 35572.2 35579.5 35588.6 35599.2 35610.8 35622.9 35635 35646.8 35657.7 35667.4
          35675.7 35682.1 35686.5 35688.7 35635.7 35626.2 35619.9 35616.6 35616.3 35618.7 35623.5 35630.4
          35639.1 35649.1 35660 35671.4 35682.8 35693.8 35704 35713.2 35720.9 35726.9 35731 35733.1
          35679.9 35671.2 35665.5 35662.6 35662.5 35664.9 35669.7 35676.3 35684.6 35694.1 35704.4 35715.1
          35725.9 35736.3 35745.9 35754.5 35761.8 35767.4 35771.3 35773.2 35718.7 35710.7 35705.5 35703
          35703.1 35705.6 35710.2 35716.6 35724.6 35733.6 35743.5 35753.7 35763.9 35773.7 35782.9 35791
          35797.9 35803.2 35806.8 35808.7 35751.7 35744.3 35739.5 35737.4 35737.7 35740.2 35744.7 35750.9
          35758.6 35767.3 35776.7 35786.5 35796.3 35805.7 35814.4 35822.1 35828.6 35833.7 35837.2 35839
          35778.5 35771.6 35767.2 35765.3 35765.7 35768.3 35772.8 35778.8 35786.3 35794.7 35803.8 35813.2
          35822.6 35831.6 35840 35847.5 35853.7 35858.6 35861.9 35863.6 35798.9 35792.4 35788.3 35786.5
          35787.1 35789.6 35794 35800 35807.3 35815.5 35824.4 35833.5 35842.6 35851.4 35859.5 35866.7
          35872.8 35877.5 35880.8 35882.4 35812.6 35806.3 35802.4 35800.8 35801.4 35804 35808.4 35814.3
          35821.4 35829.5 35838.2 35847.2 35856.1 35864.7 35872.7 35879.7 35885.7 35890.3 35893.5 35895.1
          35819.5 35813.3 35809.5 35808 35808.6 35811.2 35815.6 35821.4 35828.5 35836.6 35845.2 35854.1
          35862.9 35871.4 35879.3 35886.3 35892.1 35896.7 35899.8 35901.4 34805 34780.8 34764.2 34755
          34753.1 34758 34769 34785.5 34806.3 34830.6 34857.1 34884.9 34912.9 34939.9 34965 34987.3
          35006.2 35020.8 35030.9 35036 34799.1 34774.8 34758.1 34748.9 34747 34751.9 34763.1 34779.6
          34800.7 34825.1 34851.9 34879.9 34908.1 34935.3 34960.6 34983.1 35002 35016.8 35026.9 35032.1
          34787.5 34763 34746.1 34736.8 34734.9 34740 34751.4 34768.2 34789.6 34814.5 34841.7 34870.1
          34898.7 34926.3 34951.9 34974.7 34993.9 35008.9 35019.1 35024.3 34770.9 34745.9 34728.7 34719.3
          34717.5 34722.8 34734.5 34751.8 34773.7 34799.1 34826.9 34855.9 34885.1 34913.2 34939.4 34962.6
          34982.2 34997.4 35007.9 35013.2 34749.8 34724.3 34706.8 34697.3 34695.5 34701 34713.1 34730.9
          34753.5 34779.6 34808.2 34838 34867.9 34896.7 34923.5 34947.3 34967.3 34983 34993.6 34999.1
          34725.3 34699.2 34681.3 34671.6 34669.9 34675.7 34688.3 34706.7 34730 34757 34786.4 34817.1
          34847.9 34877.5 34905 34929.5 34950.1 34966.1 34977 34982.6 34698.6 34671.8 34653.4 34643.5
          34641.9 34648 34661.1 34680.2 34704.3 34732.2 34762.6 34794.2 34825.9 34856.5 34884.8 34909.9
          34931.1 34947.5 34958.8 34964.5 34671.1 34643.5 34624.6 34614.5 34612.9 34619.3 34632.8 34652.7
          34677.6 34706.4 34737.8 34770.4 34803.1 34834.6 34863.7 34889.6 34911.3 34928.2 34939.8 34945.7
          34644 34615.7 34596.3 34585.9 34584.4 34591 34605.1 34625.5 34651.3 34681 34713.3 34746.9
          34780.5 34812.9 34842.8 34869.4 34891.7 34909.1 34921 34927 34619 34589.9 34570.1 34559.5
          34557.9 34564.7 34579.2 34600.3 34626.8 34657.3 34690.5 34725 34759.4 34792.6 34823.2 34850.5
          34873.3 34891.1 34903.2 34909.4 34597.5 34567.8 34547.4 34536.6 34535 34542 34556.8 34578.4
          34605.4 34636.6 34670.5 34705.7 34740.9 34774.7 34806 34833.8 34857.1 34875.2 34887.6 34893.9
          34580.9 34550.7 34529.9 34518.9 34517.1 34524.2 34539.3 34561.1 34588.6 34620.3 34654.7 34690.5