<?xml version="1.0"?>
<VTKFile type="UnstructuredGrid" version="0.1" byte_order="LittleEndian">
  <UnstructuredGrid>
    <Piece NumberOfCells="1092" NumberOfPoints="1456">
      <CellData Scalars="p (Pa)">
        <DataArray type="Float32" Name="p (Pa)" NumberOfComponents="1" format="ascii">
          91596.6 91595.1 91597.5 91602.6 91608.6 91613.7 91616.5 91591.2 91589.3 91591.9 91597.8 91604.8
          91610.7 91614 91582.4 91579.6 91582.7 91590 91598.6 91605.8 91609.8 91573.9 91570.1 91573.6
          91582.2 91592.3 91600.7 91605.4 91569.9 91565.5 91569 91578.1 91588.6 91597.4 91602.3 91573
          91568.9 91571.8 91579.8 91589.3 91597.3 91601.9 91581.5 91578.3 91580.5 91586.6 91594.1 91600.6
          91604.3 91592.5 91590.4 91592 91596.2 91601.6 91606.3 91609 91603.3 91602.1 91603.3 91606.2
          91609.7 91612.8 91614.6 91612.5 91612 91612.9 91614.7 91616.9 91618.9 91620 91619.4 91619.2
          91619.9 91621.1 91622.5 91623.6 91624.3 91623.9 91623.9 91624.4 91625.2 91626.1 91626.8 91627.2
          91626.1 91626.1 91626.6 91627.2 91627.8 91628.3 91628.6 91521.6 91519.6 91523.2 91530.9 91539.8
          91547.2 91551.4 91512.8 91509.9 91514.2 91523.4 91534 91542.7 91547.6 91498 91493.4 91498.8
          91510.7 91524.1 91535.1 91541.1 91483 91476.3 91482.8 91497.6 91513.9 91527 91534.1 91475.6
          91467.4 91474.4 91490.2 91507.5 91521.4 91529.1 91481.2 91473.9 91479.4 91492.9 91508.2 91520.9
          91527.9 91495.6 91490.3 91494.1 91503.9 91515.6 91525.6 91531.3 91513 91509.8 91512.4 91519
          91527.1 91534.1 91538.3 91529.7 91528.1 91530 91534.3 91539.5 91544.1 91546.8 91543.6 91543
          91544.5 91547.2 91550.5 91553.3 91555 91554 91553.9 91555.1 91556.9 91558.9 91560.6 91561.6
          91560.8 91560.9 91561.8 91563 91564.3 91565.3 91565.9 91564 91564.3 91565 91566 91566.9
          91567.6 91568.1 91425.8 91422.6 91429.7 91443.6 91459.1 91471.7 91478.7 91408.2 91403.1 91411.8
          91429.2 91448.2 91463.5 91471.9 91377.5 91368.1 91380 91404 91429.5 91449.4 91460.1 91344
          91327.9 91344.5 91376.6 91409 91433.7 91446.9 91325.8 91303.3 91323.6 91360 91395.5 91422.4
          91436.7 91340.1 91322.4 91336.4 91365.6 91396.1 91420.3 91433.6 91371 91360 91368.3 91387.7
          91409.6 91428.2 91438.9 91404.8 91399.2 91404.5 91416.6 91430.9 91443.7 91451.2 91435.6 91433.4
          91437.3 91444.9 91453.9 91462 91466.8 91460.9 91460.5 91463.5 91468.4 91473.9 91478.9 91481.8
          91479.6 91480 91482.3 91485.6 91489 91491.9 91493.7 91491.8 91492.5 91494.2 91496.4 91498.7
          91500.5 91501.5 91497.8 91498.5 91499.9 91501.7 91503.3 91504.6 91505.4 91301.4 91296.4 91310.4
          91335.9 91363.2 91385 91396.9 91265.2 91255.8 91274.2 91307.9 91342.8 91370 91384.6 91197.9
          91176.5 91205.7 91256.7 91306.4 91343.4 91362.8 91116.4 91069.2 91119.7 91196.3 91264.3 91312.6
          91337.4 91063.3 90978.4 91059 91155.7 91234.2 91288.6 91316.5 91108.4 91056.6 91100.2 91169.3
          91233.3 91282 91308.2 91181.6 91156.4 91176.9 91216.7 91258.6 91295.1 91316.2 91250.2 91240.8
          91252.4 91274.9 91300.4 91324.4 91339 91309.3 91307.4 91315.6 91329.2 91344.7 91359.4 91368.5
          91356.8 91357.7 91364.1 91372.9 91382.4 91391.2 91396.6 91391.7 91393.5 91398.2 91404.2 91410.2
          91415.4 91418.6 91414.2 91416 91419.6 91423.8 91427.8 91431 91432.9 91425.2 91426.9 91429.8
          91433.1 91436.1 91438.5 91439.8 91137.2 91130.7 91158 91203.1 91249.4 91285.2 91304.5 91064
          91047.3 91087.1 91150.7 91212.5 91258.9 91283.3 90915.5 90862.5 90940 91048.8 91143.7 91210.5
          91244.6 90702.3 90529 90719.2 90914.3 91057.9 91151 91197 90512.3 89975.8 90503.3 90806.3
          90988.5 91100.1 91154.7 90690 90500.1 90669.2 90842.5 90980.2 91080.7 91133.8 90876.5 90814.4
          90869.3 90948.3 91024.8 91099.8 91144.1 91015.5 91003.1 91029.5 91068.3 91110.5 91156.8 91186.5
          91129 91132.1 91150.1 91172.9 91197.9 91224.7 91242.2 91218.1 91224.4 91237.9 91253.1 91268.8
          91284.2 91294.1 91282.5 91288.2 91298.1 91308.8 91318.9 91327.9 91333.5 91323.6 91328.1 91335.3
          91342.9 91349.8 91355.3 91358.6 91343.4 91347.1 91352.9 91358.9 91364.2 91368.3 91370.5 90921.7
          90916.4 90967.9 91043.3 91116.6 91172 91201.4 90777.6 90751.7 90837 90951 91054 91128.5
          91167 90448.6 90309 90530.6 90756.1 90929.7 91044.8 91101.9 89845.1 88987.2 89935.5 90455
          90756.8 90933.5 91016.7 88932.4 81830.4 88907.4 90131.2 90589.1 90825.3 90932.9 89857.4 88916.5
          89789.9 90231.2 90545.7 90768.6 90881.7 90359.8 90194.4 90354.1 90488.9 90601.5 90783.7 90888.2
          90629 90632.9 90694.7 90749.8 90806.1 90903.9 90969.3 90852.7 90880.1 90920 90954.2 90989.7
          91040 91075.3 91022.8 91045.6 91074.3 91099.4 91123.5 91150.5 91168.8 91141 91156.6 91176.7
          91195 91211.5 91226.7 91236.4 91214.1 91224.6 91238.6 91251.8 91263.2 91272.5 91278 91248.7
          91256.6 91267.5 91278 91286.9 91293.6 91297.4 90646.1 90654 90745.1 90860.7 90968.4 91048.2
          91090.1 90369.5 90350.1 90524.9 90710.2 90869.1 90981.2 91038.4 89621.9 89229.8 89932.4 90357.3
          90655.9 90845.1 90936.2 87644.4 80640.3 88282.9 89673.9 90310.5 90644.1 90791.5 80369.4 -1.34617e+06
          80231 88399.4 89865.7 90412.2 90631.1 88068.4 80423.8 87800.1 88661.8 89651.6 90246 90509.3
          89446.8 88953.3 89480.8 89561.9 89435.7 90178.3 90484.9 89888 90039.8 90189.1 90221.8 90226.6
          90488.6 90651.5 90386.4 90509 90599.4 90640.3 90676.3 90780.5 90855 90731.8 90802.2 90862.8
          90901.8 90935.9 90984.1 91018.1 90951.6 90990.6 91030.1 91060.6 91086 91111.3 91127.8 91079.8
          91102.3 91128.2 91150.3 91168.3 91183.2 91192.1 91138.5 91154 91173.2 91190.6 91204.7 91215.3
          91221.2 90313 90366.9 90509.6 90667.9 90813.1 90919.8 90975.4 89777.3 89912.1 90190.2 90442.6
          90668.4 90825.9 90904.8 87821.7 88242.1 89269.2 89829.7 90323.1 90621.7 90758.6 77493.3 77377.2
          86442.7 88083.7 89619.8 90277.2 90533 73455.6 -1.36241e+06 72606.8 79249.1 88157.4 89776 90244.6
          85876.8 76702.2 84919.4 78783.7 87177.6 89299.9 89972.3 87869.3 87573.9 88153.2 87071.8 80740.5
          88565 89814.3 87931.9 89104.8 89436.2 89251.1 88675.8 89741.8 90197 89483.5 89953.8 90159.1
          90182.6 90169 90421.9 90583.5 90272.4 90471.5 90597.4 90655.8 90700 90789 90851 90694.5
          90784.7 90859.5 90908.6 90946.8 90987.7 91014.5 90916.6 90961.4 91006.6 91041.7 91069 91091.6
          91105.1 91012.5 91040.6 91072.4 91099.5 91120.6 91136.2 91145 89954.6 90087 90284.2 90480.8
          90661.1 90792.9 90861.3 88772.9 89445.1 89853.9 90171.4 90474.9 90677.6 90776.6 79061.6 87001.1
          88284.4 89016.6 89967.6 90410.7 90594.8 -1.36084e+06 72542.4 77711.3 80153.6 88437.7 89887.2 90291.9
          -1.36235e+06 -1.36316e+06 -1.36271e+06 -1.32347e+06 79975.5 88799.4 89845.1 75404.2 72100.3 71539.8 -1.34683e+06 75230.5
          87512 89325.4 84190.8 85419.3 85347.3 73938.8 -1.34115e+06 80156.9 88683.3 76484.7 87056.5 88212.5
          87044.1 80460.9 88337.4 89658.3 87231.3 89064.3 89568.1 89514.2 89265.5 89998 90317 89492.2
          90033.6 90289.1 90377.9 90437.5 90598.7 90699 90349.7 90544.7 90677.8 90754.5 90811.1 90873
          90912.1 90728.5 90810.1 90882.9 90935.3 90974.4 91006.2 91024.8 90877.7 90923.6 90971.9 91010.9
          91040.2 91061.6 91073.2 89763.1 89884 90097.7 90312.8 90513.2 90664 90743.6 88492.8 89189.1
          89676 90028.3 90333.2 90548 90656.8 78367 86716 88490.6 89249.1 89893 90287.9 90471.5
          -1.35837e+06 72999.6 85110.8 87034.3 88934.6 89814.6 90166.2 65866.6 -1.36357e+06 69259 76006.6 86534.8
          88969.8 89716.6 81290.1 68886.8 78623.5 59492.9 76268.1 87231.6 89118.2 69077.1 81471.8 74681
          -1.36036e+06 -1.36001e+06 79477.7 88447.7 -1.3587e+06 77425.6 86069.5 78442.9 79373.4 88071.5 89505.9 76657
          87447.9 88884 88647 88947.4 89850.6 90208.8 88027.4 89522 90001.3 90145.8 90293.2 90498.2
          90614.4 89934 90309.1 90518.9 90630.9 90715.6 90793.9 90840.2 90542.5 90671.2 90774.7 90845.7
          90897.6 90937.1 90959.3 90752.7 90817.9 90882.5 90933.1 90970.4 90996.5 91010.4 89670.8 89698.1
          89870.8 90079.3 90313.9 90500.5 90600.2 88493.8 88933.3 89426.9 89804.8 90144.9 90392 90518.8
          78786.5 86114.1 88209.8 89104.2 89748.6 90154.7 90348.3 -1.35988e+06 70778.8 84814.3 87250.5 88938
          89742.7 90079 -1.36363e+06 -1.36399e+06 68605.3 76539.9 86914.7 89062.4 89714.9 66961.6 55655.1 60598.3
          -1.36284e+06 77148.2 87850.7 89320.9 -1.36393e+06 67038.3 72163.7 -1.35986e+06 75992.7 87567.4 89258.8 -1.36276e+06
          75718.5 85531.5 79081.2 87243.9 89166 89794.4 74953.5 86932.3 88692.8 88725.4 89519.6 90038
          90280.3 87527.2 89297.1 89885.2 90105.6 90325.3 90507.5 90606.6 89734.5 90180.1 90431.5 90572.2
          90677.4 90758.2 90803 90430.9 90580.9 90701.4 90785 90845.2 90887.9 90910.7 90667 90741.5
          90815.1 90872.8 90914.7 90943.1 90957.8 89623.4 89446.8 89480.8 89608.6 89962.2 90249.2 90397.8
          88910.4 88347.2 88912.8 89306.5 89796.3 90148.9 90324.2 86386.3 78699.1 86818.6 88479.5 89399.3
          89931.3 90174 73599.7 -1.36026e+06 74123.5 85973.2 88562.9 89567.4 89953.1 66529.2 -1.36427e+06 -1.36409e+06
          73593.5 86800.9 89080 89712.7 -1.36402e+06 -1.36565e+06 -1.36466e+06 -1.35423e+06 78848.8 88399.7 89544 -1.36585e+06
          66800.7 74792.6 75702.4 86832.5 89048.2 89709.4 64016.8 83706 86741.3 87433.4 88988.7 89739.9
          90063.2 77353.4 87469.3 88991.1 89465.5 89923.6 90236.1 90392.1 87745.4 89360.4 89938.2 90210
          90411.2 90555.7 90631.9 89763.3 90171.5 90418.7 90568.6 90673.8 90747 90785.7 90409.6 90548.5
          90666.2 90751.2 90811.6 90852.4 90873.4 90630.8 90700.6 90772.2 90829.5 90871.1 90898.6 90912.5
        </DataArray>
        <DataArray type="Float32" Name="saturation" NumberOfComponents="1" format="ascii">
          0.110072 0.110071 0.110074 0.11008 0.110088 0.110095 0.110098 0.110065 0.110063 0.110066 0.110074 0.110083
          0.110091 0.110095 0.110054 0.110051 0.110055 0.110064 0.110075 0.110084 0.11009 0.110043 0.110038 0.110043
          0.110054 0.110067 0.110078 0.110084 0.110038 0.110033 0.110037 0.110049 0.110062 0.110073 0.11008 0.110042
          0.110037 0.110041 0.110051 0.110063 0.110073 0.110079 0.110053 0.110049 0.110052 0.11006 0.110069 0.110078
          0.110082 0.110067 0.110064 0.110066 0.110072 0.110079 0.110085 0.110088 0.110081 0.11008 0.110081 0.110085
          0.110089 0.110093 0.110096 0.110093 0.110092 0.110093 0.110096 0.110099 0.110101 0.110103 0.110102 0.110102
          0.110103 0.110104 0.110106 0.110107 0.110108 0.110108 0.110108 0.110108 0.11011 0.110111 0.110112 0.110112
          0.110111 0.110111 0.110111 0.110112 0.110113 0.110114 0.110114 0.109977 0.109974 0.109979 0.109989 0.11
          0.110009 0.110015 0.109966 0.109962 0.109968 0.109979 0.109993 0.110004 0.11001 0.109947 0.109942 0.109948
          0.109963 0.10998 0.109994 0.110002 0.109929 0.109921 0.109929 0.109947 0.109967 0.109984 0.109993 0.10992
          0.10991 0.109918 0.109938 0.109959 0.109977 0.109986 0.109927 0.109918 0.109924 0.109941 0.10996 0.109976
          0.109985 0.109945 0.109938 0.109943 0.109955 0.109969 0.109982 0.109989 0.109966 0.109962 0.109965 0.109974
          0.109984 0.109993 0.109998 0.109987 0.109985 0.109988 0.109993 0.11 0.110005 0.110009 0.110005 0.110004
          0.110006 0.110009 0.110013 0.110017 0.110019 0.110018 0.110018 0.110019 0.110022 0.110024 0.110026 0.110028
          0.110027 0.110027 0.110028 0.110029 0.110031 0.110032 0.110033 0.110031 0.110031 0.110032 0.110033 0.110034
          0.110035 0.110036 0.109859 0.109855 0.109863 0.10988 0.109899 0.109915 0.109924 0.109837 0.109831 0.109842
          0.109863 0.109886 0.109905 0.109915 0.1098 0.109789 0.109804 0.109832 0.109863 0.109887 0.109901 0.109761
          0.109742 0.109761 0.109799 0.109838 0.109868 0.109884 0.109739 0.109713 0.109737 0.10978 0.109822 0.109855
          0.109872 0.109756 0.109735 0.109752 0.109786 0.109823 0.109852 0.109868 0.109793 0.10978 0.10979 0.109813
          0.109839 0.109862 0.109875 0.109833 0.109827 0.109833 0.109848 0.109865 0.10988 0.10989 0.109871 0.109868
          0.109873 0.109882 0.109893 0.109903 0.109909 0.109902 0.109901 0.109905 0.109911 0.109918 0.109924 0.109927
          0.109925 0.109925 0.109928 0.109932 0.109936 0.10994 0.109942 0.10994 0.109941 0.109943 0.109946 0.109948
          0.109951 0.109952 0.109947 0.109948 0.10995 0.109952 0.109954 0.109956 0.109957 0.109711 0.109705 0.109721
          0.109751 0.109784 0.10981 0.109824 0.109669 0.109658 0.109679 0.109718 0.109759 0.109792 0.109809 0.109593
          0.109569 0.109601 0.109659 0.109717 0.10976 0.109783 0.109502 0.109451 0.109506 0.109591 0.109668 0.109724
          0.109753 0.109445 0.109355 0.10944 0.109546 0.109634 0.109696 0.109728 0.109494 0.109438 0.109485 0.109561
          0.109633 0.109688 0.109719 0.109574 0.109546 0.109569 0.109614 0.109661 0.109704 0.109728 0.109652 0.109641
          0.109654 0.10968 0.10971 0.109738 0.109755 0.10972 0.109718 0.109727 0.109743 0.109762 0.109779 0.10979
          0.109776 0.109777 0.109785 0.109795 0.109806 0.109817 0.109823 0.109818 0.10982 0.109825 0.109833 0.10984
          0.109846 0.10985 0.109845 0.109847 0.109851 0.109856 0.109861 0.109865 0.109867 0.109858 0.10986 0.109864
          0.109868 0.109871 0.109874 0.109876 0.109525 0.109518 0.109548 0.109599 0.109651 0.109692 0.109714 0.109446
          0.109428 0.109471 0.10954 0.109609 0.109662 0.10969 0.10929 0.109237 0.109315 0.109429 0.109532 0.109607
          0.109645 0.10908 0.10892 0.109096 0.109289 0.109439 0.10954 0.109592 0.108904 0.108462 0.108896 0.109181
          0.109366 0.109485 0.109545 0.109068 0.108894 0.109049 0.109217 0.109357 0.109464 0.109521 0.109251 0.109189
          0.109244 0.109324 0.109404 0.109484 0.109533 0.109394 0.109381 0.109409 0.10945 0.109496 0.109547 0.10958
          0.109516 0.10952 0.109539 0.109565 0.109593 0.109623 0.109643 0.109615 0.109622 0.109638 0.109655 0.109673
          0.109691 0.109702 0.109689 0.109696 0.109707 0.109719 0.109731 0.109742 0.109748 0.109737 0.109742 0.109751
          0.109759 0.109768 0.109774 0.109778 0.10976 0.109764 0.109771 0.109778 0.109785 0.10979 0.109792 0.109297
          0.109291 0.109344 0.109424 0.109503 0.109564 0.109597 0.109153 0.109128 0.109211 0.109327 0.109435 0.109516
          0.109558 0.108848 0.108728 0.108921 0.109132 0.109305 0.109425 0.109487 0.108364 0.107808 0.108431 0.108854
          0.109132 0.109309 0.109395 0.107777 0.105811 0.107763 0.108582 0.108974 0.1092 0.109308 0.108373 0.107768
          0.108324 0.108663 0.108935 0.109144 0.109256 0.108771 0.108633 0.108766 0.108884 0.108986 0.109159 0.109263
          0.109011 0.109015 0.109073 0.109126 0.109181 0.109279 0.109346 0.109227 0.109254 0.109295 0.10933 0.109367
          0.10942 0.109458 0.109402 0.109426 0.109457 0.109484 0.10951 0.10954 0.10956 0.109529 0.109547 0.109569
          0.109589 0.109608 0.109625 0.109636 0.109611 0.109623 0.109639 0.109654 0.109667 0.109677 0.109684 0.10965
          0.109659 0.109672 0.109684 0.109694 0.109702 0.109706 0.109027 0.109034 0.109121 0.109235 0.109345 0.109429
          0.109474 0.108779 0.108763 0.108916 0.109088 0.109243 0.109358 0.109418 0.108206 0.107952 0.108429 0.108769
          0.109036 0.109219 0.109311 0.107159 0.105673 0.10744 0.108242 0.108729 0.109025 0.109166 0.105645 0.10096
          0.105631 0.107497 0.108379 0.108816 0.109013 0.107341 0.10565 0.107224 0.10763 0.108227 0.108675 0.108902
          0.108089 0.107789 0.108111 0.108165 0.108082 0.10862 0.10888 0.108396 0.108511 0.108629 0.108656 0.10866
          0.108883 0.109032 0.108794 0.108902 0.108984 0.109022 0.109055 0.109155 0.109229 0.109108 0.109177 0.109237
          0.109276 0.109311 0.109361 0.109397 0.109327 0.109368 0.10941 0.109442 0.109469 0.109497 0.109515 0.109463
          0.109487 0.109515 0.10954 0.10956 0.109576 0.109586 0.109527 0.109544 0.109565 0.109584 0.1096 0.109612
          0.109619 0.108731 0.108777 0.108902 0.109048 0.109187 0.109295 0.109352 0.108315 0.108414 0.10863 0.108843
          0.109048 0.1092 0.109279 0.107233 0.107421 0.107976 0.108353 0.10874 0.109004 0.109134 0.105407 0.105399
          0.106735 0.107348 0.108205 0.108701 0.108923 0.105195 0.100916 0.105162 0.10554 0.107381 0.108314 0.108674
          0.106571 0.105357 0.106335 0.105502 0.10698 0.107995 0.108459 0.107253 0.107131 0.107379 0.106942 0.105684
          0.10758 0.108342 0.10728 0.107877 0.108082 0.107965 0.107637 0.10829 0.108635 0.108113 0.108445 0.108605
          0.108624 0.108613 0.108825 0.108969 0.108697 0.108868 0.108982 0.109036 0.109078 0.109164 0.109225 0.109073
          0.10916 0.109234 0.109283 0.109322 0.109365 0.109393 0.109291 0.109338 0.109385 0.109422 0.109451 0.109475
          0.10949 0.109391 0.109421 0.109455 0.109484 0.109507 0.109524 0.109534 0.108445 0.108547 0.108707 0.108876
          0.109041 0.109168 0.109235 0.107689 0.108088 0.108371 0.108615 0.108871 0.109057 0.109152 0.105525 0.106917
          0.107441 0.107825 0.108455 0.108815 0.108979 0.10092 0.105159 0.105422 0.105623 0.107515 0.108395 0.108714
          0.100916 0.100914 0.100915 0.101022 0.105606 0.107703 0.108364 0.105284 0.105143 0.105124 0.100958 0.105275
          0.107107 0.108011 0.106183 0.106452 0.106435 0.105215 0.100974 0.105624 0.107641 0.105344 0.106937 0.107407
          0.106932 0.105654 0.107466 0.108231 0.107 0.107853 0.10817 0.108134 0.107974 0.108478 0.108735 0.108119
          0.108506 0.108711 0.108787 0.108838 0.108983 0.109077 0.108762 0.108934 0.109057 0.10913 0.109186 0.109247
          0.109287 0.109105 0.109185 0.109257 0.109311 0.109351 0.109384 0.109404 0.109252 0.109299 0.109348 0.109389
          0.10942 0.109443 0.109456 0.108305 0.108393 0.108556 0.108731 0.108905 0.109044 0.10912 0.107543 0.107927
          0.108243 0.108502 0.108748 0.108937 0.109037 0.105469 0.106821 0.107542 0.107964 0.108399 0.10871 0.108868
          0.100927 0.105176 0.106379 0.106929 0.107778 0.108342 0.10861 0.10498 0.100912 0.105056 0.105316 0.106763
          0.107798 0.108272 0.105745 0.105047 0.105489 0.104885 0.105331 0.107 0.107885 0.105052 0.105767 0.105249
          0.100921 0.100922 0.10556 0.10752 0.100926 0.105403 0.106624 0.105475 0.105551 0.107342 0.108128 0.105354
          0.107082 0.10775 0.107622 0.107786 0.108368 0.108645 0.107322 0.108139 0.108481 0.108594 0.108715 0.108892
          0.108998 0.10843 0.108728 0.10891 0.109013 0.109093 0.109169 0.109214 0.108932 0.109051 0.10915 0.10922
          0.109272 0.109312 0.109335 0.109128 0.109192 0.109257 0.109308 0.109347 0.109374 0.109389 0.10824 0.108259
          0.108383 0.108541 0.108732 0.108894 0.108984 0.107543 0.107778 0.108076 0.108335 0.108593 0.108799 0.10891
          0.105502 0.106637 0.107406 0.107876 0.108295 0.108601 0.108761 0.100923 0.1051 0.106312 0.107007 0.10778
          0.10829 0.108541 0.100912 0.100911 0.10504 0.105347 0.106888 0.107852 0.108271 0.105002 0.104846 0.104898
          0.100914 0.105384 0.107245 0.108009 0.100911 0.105004 0.105145 0.100923 0.105316 0.107128 0.10797 0.100915
          0.105301 0.10648 0.105526 0.107004 0.107913 0.108327 0.105262 0.106894 0.107646 0.107663 0.108137 0.108509
          0.108704 0.107113 0.107994 0.108394 0.108562 0.108742 0.1089 0.10899 0.108285 0.108622 0.108833 0.108959
          0.109056 0.109134 0.109178 0.108832 0.108967 0.109079 0.10916 0.109219 0.109262 0.109285 0.109047 0.109118
          0.10919 0.109247 0.109289 0.109319 0.109334 0.108207 0.108089 0.108111 0.108197 0.108451 0.108678 0.108804
          0.107765 0.107471 0.107766 0.108 0.108329 0.108597 0.108741 0.106717 0.105495 0.106855 0.107536 0.108058
          0.108428 0.108617 0.105201 0.100921 0.105223 0.106597 0.107578 0.108169 0.108444 0.104993 0.10091 0.100911
          0.1052 0.106849 0.107862 0.108269 0.100911 0.100907 0.100909 0.100938 0.105507 0.107497 0.108153 0.100906
          0.104999 0.105254 0.1053 0.10686 0.107844 0.108267 0.104947 0.106094 0.106829 0.107076 0.107809 0.108288
          0.108529 0.105398 0.10709 0.107811 0.108101 0.108422 0.108667 0.108799 0.107201 0.108034 0.108433 0.108646
          0.108815 0.108944 0.109014 0.108305 0.108615 0.108822 0.108955 0.109053 0.109123 0.109161 0.108814 0.108937
          0.109046 0.109127 0.109186 0.109227 0.109248 0.109013 0.109078 0.109147 0.109204 0.109245 0.109273 0.109287
        </DataArray>
        <DataArray type="Float32" Name="process rank" NumberOfComponents="1" format="ascii">
          1 1 1 1 1 1 1 1 1 1 1 1
          1 1 1 1 1 1 1 1 1 1 1 1
          1 1 1 1 1 1 1 1 1 1 1 1
          1 1 1 1 1 1 1 1 1 1 1 1
          1 1 1 1 1 1 1 1 1 1 1 1
          1 1 1 1 1 1 1 1 1 1 1 1
          1 1 1 1 1 1 1 1 1 1 1 1
          1 1 1 1 1 1 1 1 1 1 1 1
          1 1 1 1 1 1 1 1 1 1 1 1
          1 1 1 1 1 1 1 1 1 1 1 1
          1 1 1 1 1 1 1 1 1 1 1 1
          1 1 1 1 1 1 1 1 1 1 1 1
          1 1 1 1 1 1 1 1 1 1 1 1
          1 1 1 1 1 1 1 1 1 1 1 1
          1 1 1 1 1 1 1 1 1 1 1 1
          1 1 1 1 1 1 1 1 1 1 1 1
          1 1 1 1 1 1 1 1 1 1 1 1
          1 1 1 1 1 1 1 1 1 1 1 1
          1 1 1 1 1 1 1 1 1 1 1 1
          1 1 1 1 1 1 1 1 1 1 1 1
          1 1 1 1 1 1 1 1 1 1 1 1
          1 1 1 1 1 1 1 1 1 1 1 1
          1 1 1 1 1 1 1 1 1 1 1 1
          1 1 1 1 1 1 1 1 1 1 1 1
          1 1 1 1 1 1 1 1 1 1 1 1
          1 1 1 1 1 1 1 1 1 1 1 1
          1 1 1 1 1 1 1 1 1 1 1 1
          1 1 1 1 1 1 1 1 1 1 1 1
          1 1 1 1 1 1 1 1 1 1 1 1
          1 1 1 1 1 1 1 1 1 1 1 1
          1 1 1 1 1 1 1 1 1 1 1 1
          1 1 1 1 1 1 1 1 1 1 1 1
          1 1 1 1 1 1 1 1 1 1 1 1
          1 1 1 1 1 1 1 1 1 1 1 1
          1 1 1 1 1 1 1 1 1 1 1 1
          1 1 1 1 1 1 1 1 1 1 1 1
          1 1 1 1 1 1 1 1 1 1 1 1
          1 1 1 1 1 1 1 1 1 1 1 1
          1 1 1 1 1 1 1 1 1 1 1 1
          1 1 1 1 1 1 1 1 1 1 1 1
          1 1 1 1 1 1 1 1 1 1 1 1
          1 1 1 1 1 1 1 1 1 1 1 1
          1 1 1 1 1 1 1 1 1 1 1 1
          1 1 1 1 1 1 1 1 1 1 1 1
          1 1 1 1 1 1 1 1 1 1 1 1
          1 1 1 1 1 1 1 1 1 1 1 1
          1 1 1 1 1 1 1 1 1 1 1 1
          1 1 1 1 1 1 1 1 1 1 1 1
          1 1 1 1 1 1 1 1 1 1 1 1
          1 1 1 1 1 1 1 1 1 1 1 1
          1 1 1 1 1 1 1 1 1 1 1 1
          1 1 1 1 1 1 1 1 1 1 1 1
          1 1 1 1 1 1 1 1 1 1 1 1
          1 1 1 1 1 1 1 1 1 1 1 1
          1 1 1 1 1 1 1 1 1 1 1 1
          1 1 1 1 1 1 1 1 1 1 1 1
          1 1 1 1 1 1 1 1 1 1 1 1
          1 1 1 1 1 1 1 1 1 1 1 1
          1 1 1 1 1 1 1 1 1 1 1 1
          1 1 1 1 1 1 1 1 1 1 1 1
          1 1 1 1 1 1 1 1 1 1 1 1
          1 1 1 1 1 1 1 1 1 1 1 1
          1 1 1 1 1 1 1 1 1 1 1 1
          1 1 1 1 1 1 1 1 1 1 1 1
          1 1 1 1 1 1 1 1 1 1 1 1
          1 1 1 1 1 1 1 1 1 1 1 1
          1 1 1 1 1 1 1 1 1 1 1 1
          1 1 1 1 1 1 1 1 1 1 1 1
          1 1 1 1 1 1 1 1 1 1 1 1
          1 1 1 1 1 1 1 1 1 1 1 1
          1 1 1 1 1 1 1 1 1 1 1 1
          1 1 1 1 1 1 1 1 1 1 1 1
          1 1 1 1 1 1 1 1 1 1 1 1
          1 1 1 1 1 1 1 1 1 1 1 1
          1 1 1 1 1 1 1 1 1 1 1 1
          1 1 1 1 1 1 1 1 1 1 1 1
          1 1 1 1 1 1 1 1 1 1 1 1
          1 1 1 1 1 1 1 1 1 1 1 1
          1 1 1 1 1 1 1 1 1 1 1 1
          1 1 1 1 1 1 1 1 1 1 1 1
          1 1 1 1 1 1 1 1 1 1 1 1
          1 1 1 1 1 1 1 1 1 1 1 1
          1 1 1 1 1 1 1 1 1 1 1 1
          1 1 1 1 1 1 1 1 1 1 1 1
          1 1 1 1 1 1 1 1 1 1 1 1
          1 1 1 1 1 1 1 1 1 1 1 1
          1 1 1 1 1 1 1 1 1 1 1 1
          1 1 1 1 1 1 1 1 1 1 1 1
          1 1 1 1 1 1 1 1 1 1 1 1
          1 1 1 1 1 1 1 1 1 1 1 1
          1 1 1 1 1 1 1 1 1 1 1 1
        </DataArray>
      </CellData>
      <Points>
        <DataArray type="Float32" Name="Coordinates" NumberOfComponents="3" format="ascii">
          -0.00307692 -0.04 -0.15 0.00307692 -0.04 -0.15 -0.00307692 -0.0338462 -0.15 0.00307692 -0.0338462 -0.15
          -0.00307692 -0.04 -0.144 0.00307692 -0.04 -0.144 -0.00307692 -0.0338462 -0.144 0.00307692 -0.0338462 -0.144
          0.00923077 -0.04 -0.15 0.00923077 -0.0338462 -0.15 0.00923077 -0.04 -0.144 0.00923077 -0.0338462 -0.144
          0.0153846 -0.04 -0.15 0.0153846 -0.0338462 -0.15 0.0153846 -0.04 -0.144 0.0153846 -0.0338462 -0.144
          0.0215385 -0.04 -0.15 0.0215385 -0.0338462 -0.15 0.0215385 -0.04 -0.144 0.0215385 -0.0338462 -0.144
          0.0276923 -0.04 -0.15 0.0276923 -0.0338462 -0.15 0.0276923 -0.04 -0.144 0.0276923 -0.0338462 -0.144
          0.0338462 -0.04 -0.15 0.0338462 -0.0338462 -0.15 0.0338462 -0.04 -0.144 0.0338462 -0.0338462 -0.144
          0.04 -0.04 -0.15 0.04 -0.0338462 -0.15 0.04 -0.04 -0.144 0.04 -0.0338462 -0.144
          -0.00307692 -0.0276923 -0.15 0.00307692 -0.0276923 -0.15 -0.00307692 -0.0276923 -0.144 0.00307692 -0.0276923 -0.144
          0.00923077 -0.0276923 -0.15 0.00923077 -0.0276923 -0.144 0.0153846 -0.0276923 -0.15 0.0153846 -0.0276923 -0.144
          0.0215385 -0.0276923 -0.15 0.0215385 -0.0276923 -0.144 0.0276923 -0.0276923 -0.15 0.0276923 -0.0276923 -0.144
          0.0338462 -0.0276923 -0.15 0.0338462 -0.0276923 -0.144 0.04 -0.0276923 -0.15 0.04 -0.0276923 -0.144
          -0.00307692 -0.0215385 -0.15 0.00307692 -0.0215385 -0.15 -0.00307692 -0.0215385 -0.144 0.00307692 -0.0215385 -0.144
          0.00923077 -0.0215385 -0.15 0.00923077 -0.0215385 -0.144 0.0153846 -0.0215385 -0.15 0.0153846 -0.0215385 -0.144
          0.0215385 -0.0215385 -0.15 0.0215385 -0.0215385 -0.144 0.0276923 -0.0215385 -0.15 0.0276923 -0.0215385 -0.144
          0.0338462 -0.0215385 -0.15 0.0338462 -0.0215385 -0.144 0.04 -0.0215385 -0.15 0.04 -0.0215385 -0.144
          -0.00307692 -0.0153846 -0.15 0.00307692 -0.0153846 -0.15 -0.00307692 -0.0153846 -0.144 0.00307692 -0.0153846 -0.144
          0.00923077 -0.0153846 -0.15 0.00923077 -0.0153846 -0.144 0.0153846 -0.0153846 -0.15 0.0153846 -0.0153846 -0.144
          0.0215385 -0.0153846 -0.15 0.0215385 -0.0153846 -0.144 0.0276923 -0.0153846 -0.15 0.0276923 -0.0153846 -0.144
          0.0338462 -0.0153846 -0.15 0.0338462 -0.0153846 -0.144 0.04 -0.0153846 -0.15 0.04 -0.0153846 -0.144
          -0.00307692 -0.00923077 -0.15 0.00307692 -0.00923077 -0.15 -0.00307692 -0.00923077 -0.144 0.00307692 -0.00923077 -0.144
          0.00923077 -0.00923077 -0.15 0.00923077 -0.00923077 -0.144 0.0153846 -0.00923077 -0.15 0.0153846 -0.00923077 -0.144
          0.0215385 -0.00923077 -0.15 0.0215385 -0.00923077 -0.144 0.0276923 -0.00923077 -0.15 0.0276923 -0.00923077 -0.144
          0.0338462 -0.00923077 -0.15 0.0338462 -0.00923077 -0.144 0.04 -0.00923077 -0.15 0.04 -0.00923077 -0.144
          -0.00307692 -0.00307692 -0.15 0.00307692 -0.00307692 -0.15 -0.00307692 -0.00307692 -0.144 0.00307692 -0.00307692 -0.144
          0.00923077 -0.00307692 -0.15 0.00923077 -0.00307692 -0.144 0.0153846 -0.00307692 -0.15 0.0153846 -0.00307692 -0.144
          0.0215385 -0.00307692 -0.15 0.0215385 -0.00307692 -0.144 0.0276923 -0.00307692 -0.15 0.0276923 -0.00307692 -0.144
          0.0338462 -0.00307692 -0.15 0.0338462 -0.00307692 -0.144 0.04 -0.00307692 -0.15 0.04 -0.00307692 -0.144
          -0.00307692 0.00307692 -0.15 0.00307692 0.00307692 -0.15 -0.00307692 0.00307692 -0.144 0.00307692 0.00307692 -0.144
          0.00923077 0.00307692 -0.15 0.00923077 0.00307692 -0.144 0.0153846 0.00307692 -0.15 0.0153846 0.00307692 -0.144
          0.0215385 0.00307692 -0.15 0.0215385 0.00307692 -0.144 0.0276923 0.00307692 -0.15 0.0276923 0.00307692 -0.144
          0.0338462 0.00307692 -0.15 0.0338462 0.00307692 -0.144 0.04 0.00307692 -0.15 0.04 0.00307692 -0.144
          -0.00307692 0.00923077 -0.15 0.00307692 0.00923077 -0.15 -0.00307692 0.00923077 -0.144 0.00307692 0.00923077 -0.144
          0.00923077 0.00923077 -0.15 0.00923077 0.00923077 -0.144 0.0153846 0.00923077 -0.15 0.0153846 0.00923077 -0.144
          0.0215385 0.00923077 -0.15 0.0215385 0.00923077 -0.144 0.0276923 0.00923077 -0.15 0.0276923 0.00923077 -0.144
          0.0338462 0.00923077 -0.15 0.0338462 0.00923077 -0.144 0.04 0.00923077 -0.15 0.04 0.00923077 -0.144
          -0.00307692 0.0153846 -0.15 0.00307692 0.0153846 -0.15 -0.00307692 0.0153846 -0.144 0.00307692 0.0153846 -0.144
          0.00923077 0.0153846 -0.15 0.00923077 0.0153846 -0.144 0.0153846 0.0153846 -0.15 0.0153846 0.0153846 -0.144
          0.0215385 0.0153846 -0.15 0.0215385 0.0153846 -0.144 0.0276923 0.0153846 -0.15 0.0276923 0.0153846 -0.144
          0.0338462 0.0153846 -0.15 0.0338462 0.0153846 -0.144 0.04 0.0153846 -0.15 0.04 0.0153846 -0.144
          -0.00307692 0.0215385 -0.15 0.00307692 0.0215385 -0.15 -0.00307692 0.0215385 -0.144 0.00307692 0.0215385 -0.144
          0.00923077 0.0215385 -0.15 0.00923077 0.0215385 -0.144 0.0153846 0.0215385 -0.15 0.0153846 0.0215385 -0.144
          0.0215385 0.0215385 -0.15 0.0215385 0.0215385 -0.144 0.0276923 0.0215385 -0.15 0.0276923 0.0215385 -0.144
          0.0338462 0.0215385 -0.15 0.0338462 0.0215385 -0.144 0.04 0.0215385 -0.15 0.04 0.0215385 -0.144
          -0.00307692 0.0276923 -0.15 0.00307692 0.0276923 -0.15 -0.00307692 0.0276923 -0.144 0.00307692 0.0276923 -0.144
          0.00923077 0.0276923 -0.15 0.00923077 0.0276923 -0.144 0.0153846 0.0276923 -0.15 0.0153846 0.0276923 -0.144
          0.0215385 0.0276923 -0.15 0.0215385 0.0276923 -0.144 0.0276923 0.0276923 -0.15 0.0276923 0.0276923 -0.144
          0.0338462 0.0276923 -0.15 0.0338462 0.0276923 -0.144 0.04 0.0276923 -0.15 0.04 0.0276923 -0.144
          -0.00307692 0.0338462 -0.15 0.00307692 0.0338462 -0.15 -0.00307692 0.0338462 -0.144 0.00307692 0.0338462 -0.144
          0.00923077 0.0338462 -0.15 0.00923077 0.0338462 -0.144 0.0153846 0.0338462 -0.15 0.0153846 0.0338462 -0.144
          0.0215385 0.0338462 -0.15 0.0215385 0.0338462 -0.144 0.0276923 0.0338462 -0.15 0.0276923 0.0338462 -0.144