<?xml version="1.0"?>
<VTKFile type="UnstructuredGrid" version="0.1" byte_order="LittleEndian">
  <UnstructuredGrid>
    <Piece NumberOfCells="1014" NumberOfPoints="1372">
      <CellData Scalars="p (Pa)">
        <DataArray type="Float32" Name="p (Pa)" NumberOfComponents="1" format="ascii">
          90610.2 90509.7 90319.5 90086.5 89915.9 89735.3 90534.8 90383.8 90071.8 89648.2 89496.4 89294.1
          90411.1 90145.7 89478.1 88130.9 88441.7 88202.3 90317.2 89903 88405.5 80060.1 86363.6 85960.4
          90373 90073.3 89288.5 87542.9 86830 83856.8 90475.9 90266.2 89768.6 88779.3 86734.4 74677.4
          90564.6 90394.4 89976.2 89027.6 86334.7 71342.3 90632.8 90479.4 90063.8 88753.7 79335.5 -1.34735e+06
          90695.6 90572 90255.7 89499.7 87355.7 76800.9 90757 90670.2 90466 90069.8 89341.8 88043.4
          90810.4 90755.1 90634.3 90432.3 90148 89865.7 90848.9 90814.8 90744.4 90638.9 90515.1 90426.2
          90868.8 90844.9 90797.5 90731 90661.1 90618.5 90498.3 90370.5 90118.8 89796.7 89638 89479.9
          90396.7 90184.2 89688.4 88765.1 88892 88827 90217.9 89769.5 88178.3 79755.4 86266.9 86606.8
          90063.4 89096.7 80355.8 -1.35367e+06 73686.9 75479 90191.1 89714.3 88006.1 78854 83688.9 71541.4
          90364.6 90110.3 89472.5 88037.9 86149.3 73240.8 90500.6 90333.9 89942.1 89147.1 87261.7 76069.8
          90596.7 90469.4 90163.1 89497.5 87707.3 78551.8 90670.1 90575.5 90355.7 89933.9 89156.6 87685.5
          90729.8 90664.9 90522.2 90278.9 89924.7 89536 90776.2 90735.1 90648.9 90515.4 90350.3 90215.9
          90807.9 90782.5 90731.3 90657.7 90576.8 90522.1 90823.9 90806.1 90771.2 90723.4 90674.6 90645
          90429.9 90294.5 90023.5 89657.7 89412 89202.1 90324.2 90100.2 89569.7 88514.6 88116.9 87984.2
          90138.8 89670.4 87996 79028.6 77705.3 77922 89980.7 88980 80028.9 -1.34721e+06 -1.36264e+06 -1.36181e+06
          90117.8 89625.5 87860.6 78436.3 72450.7 -1.36354e+06 90308.1 90055.2 89429 88046.5 86159.6 75412.4
          90461.6 90310.5 89973 89369.8 88370.4 85938.4 90570.2 90467.9 90242.4 89844.2 89173 87949.3
          90646.9 90576.6 90424.8 90172.5 89807.1 89376.2 90702.3 90656 90559.2 90409 90218.7 90047.1
          90741.3 90712.6 90654.2 90569 90471.6 90397.9 90766.3 90748.7 90714 90665.8 90614.8 90580.6
          90778.4 90766.1 90742.5 90710.8 90678.9 90659.1 90407.8 90287.8 90052.6 89739.1 89454.9 89175
          90321 90140.9 89755.1 89170.2 88720.1 88417.8 90179.2 89865.5 89055.9 87288.5 86154.9 85881.5
          90075.4 89593.6 87851.4 78223.9 73814.8 73186.5 90151.9 89804.9 88872 86689.7 83880 69776.4
          90300.8 90087 89593.8 88701.8 87379 84467.6 90440 90307.7 90021.6 89544.8 88835.8 87750.8
          90545.3 90460.7 90282 89994.4 89589.5 89103.1 90619.2 90565.1 90453 90280.5 90059.6 89845
          90669.2 90635.7 90567.7 90467.8 90350.5 90252.5 90701.7 90681.8 90642.3 90586.5 90525.3 90479.6
          90721.1 90709.3 90686.5 90655.3 90623 90600.8 90730 90722.1 90706.9 90686.6 90666.4 90653.4
          90404.6 90300.8 90094.1 89802.1 89477.3 89150.8 90336.9 90189.9 89877.9 89392.7 88824 88469.1
          90230 89996.7 89434.2 88342.8 86609.5 86768.9 90152.2 89826.4 88889.2 86253.8 75585.8 82753.6
          90187.5 89894.3 89073.6 86766.2 75745.2 68324.2 90298.4 90097.7 89606.2 88568.8 86128.8 76238.8
          90418.1 90292.1 90009.1 89498 88611.6 87056.6 90515 90438.2 90274.2 90005.2 89618.2 89172.2
          90583.9 90538.2 90444 90300.1 90118.6 89951.2 90628.9 90602.7 90550 90473.5 90385.2 90313
          90656.3 90641.9 90613.4 90573.4 90530 90497.1 90671.6 90663.7 90648.2 90627.2 90605.3 90589.8
          90678.3 90673.2 90663.5 90650.5 90637.3 90628.5 90401.3 90308.8 90116.6 89818.9 89437.2 89124.4
          90346.8 90216.2 89920.7 89375.5 88387.4 88253.3 90259.6 90049.9 89477.2 87813.1 79074.1 85204.9
          90189.8 89877.3 88655 79233.4 -1.35189e+06 69095 90203.6 89896.5 88684.8 79243.8 -1.35521e+06 -1.36682e+06
          90290.8 90083.7 89492 87597.5 76009 -1.35236e+06 90393.7 90267 89958.9 89293.9 87520 78993.5
          90480.5 90406.6 90241.8 89947.6 89444.8 88593.5 90542.9 90501.5 90414.2 90275.1 90087.2 89895.8
          90582.9 90560.8 90515.7 90448.9 90369.2 90301.8 90606.3 90595.1 90572.6 90540.6 90505.1 90477.5
          90618.7 90613 90601.8 90586.4 90570 90557.8 90623.8 90620.5 90614 90605.1 90596 90589.5
          90394.8 90315.8 90148.7 89881 89516 89117.5 90353.1 90245 90001.4 89564.2 88843.5 87835.9
          90287.1 90123.5 89709.6 88778.4 86405.5 77420.5 90234.1 90009.3 89345.6 87156.3 74164.9 -1.35901e+06
          90238.3 90012.4 89340.9 87112.9 73853.4 -1.36419e+06 90297.7 90125 89651 88215.2 78626.5 -1.35642e+06
          90376.8 90264.7 89989.7 89383.8 87704.6 78939.5 90447.9 90381.6 90231.2 89955.8 89466.8 88565.7
          90500.4 90463.9 90385.4 90257.4 90078.9 89884.5 90534.3 90515.4 90476.3 90417.1 90344.5 90280.2
          90553.7 90544.5 90526 90499.2 90468.5 90443.6 90563.6 90559.3 90550.7 90538.6 90525.3 90515
          90567.6 90565.2 90560.6 90554.1 90547.2 90542.1 90383.1 90319.2 90181.4 89953.4 89621.6 89203.1
          90353.1 90268.3 90076.5 89726.8 89117.7 88007 90306.6 90184.8 89884.3 89221.4 87431.8 78268.4
          90269.9 90112.4 89681.8 88359.8 78941 -1.34583e+06 90271.3 90115.8 89710.9 88737 85896.5 70830.8
          90309.5 90183.6 89869.2 89167.5 87276.8 77745.2 90364.8 90277.7 90073.1 89675.3 88912.6 87379.7
          90417.6 90363.9 90244.1 90035.4 89712.6 89299.8 90458 90427.9 90363.3 90259.3 90119.9 89979.1
          90484.5 90469 90436.6 90387.2 90326.6 90272.1 90499.7 90492.3 90477.2 90454.9 90428.9 90406.9
          90507.3 90504 90497.2 90487.4 90476.4 90467.4 90510.4 90508.6 90505.1 90500.1 90494.6 90490.3
          90363.8 90314.4 90206.4 90023.3 89749.2 89386.3 90343.4 90280 90136.5 89878.4 89452 88805.4
          90312.3 90225.5 90018.3 89603.1 88763.9 86933.2 90288 90180.8 89911.7 89296 87506.8 77789.8
          90287.6 90181.1 89921.3 89381.8 88222 85166.2 90311 90221.4 90009 89593.5 88800.8 87194.2
          90347.4 90282.2 90133.1 89862.5 89418.8 88778.9 90384.1 90342.2 90249.4 90091.9 89863.2 89596.1
          90413.4 90389.2 90337.1 90253.1 90141.4 90027.4 90433.1 90420.5 90393.8 90352.3 90300.3 90251.4
          90444.5 90438.5 90426 90407 90384 90363.4 90450.2 90447.6 90442 90433.8 90424 90415.5
          90452.5 90451.2 90448.4 90444.2 90439.4 90435.3 90334.7 90297.2 90213 90064.3 89828.1 89480.9
          90321 90273.8 90165.5 89967 89630.5 89079.8 90300.1 90237.3 90088.4 89798.8 89253.9 88190.7
          90283.1 90206.7 90020.8 89638.2 88834.4 86923.9 90280.5 90201.9 90011.6 89625.5 88829.6 86799.6
          90293.6 90224.3 90059 89735.6 89127.8 87968.6 90317.1 90264.1 90141 89913.5 89533.8 88966.6
          90342.6 90307.2 90226.9 90086.4 89874.9 89611.2 90364.1 90343.1 90296.4 90218.3 90109.4 89989.6
          90379 90367.9 90343.5 90304 90251.7 90198.7 90387.9 90382.6 90371.1 90352.7 90329.3 90306.8
          90392.4 90390 90385 90377 90367 90357.7 90394.2 90393 90390.5 90386.5 90381.7 90377.3
          90295.8 90266.7 90198.8 90072.7 89857.4 89503.5 90286 90249.4 90162.5 89995.3 89687.8 89081.4
          90270.6 90221.4 90102 89860.5 89362.2 87981.1 90256.5 90195.1 90042.6 89720.6 89012.7 86973.2
          90250.9 90183.6 90013.9 89642.9 88769.8 86083.8 90256.9 90193.6 90034.1 89689.8 88915.4 86802.2
          90272.5 90221.6 90096.7 89844.2 89361.3 88476.3 90291.9 90256.6 90172.7 90014 89748.2 89365.8
          90309.4 90288 90238.4 90149.6 90014.6 89849.5 90322.1 90310.7 90284.5 90239.5 90175.7 90105.6
          90329.9 90324.4 90312 90291.2 90263.1 90234.2 90333.9 90331.5 90326 90317 90305.2 90293.7
          90335.5 90334.3 90331.6 90327.2 90321.5 90316.1 90248.8 90225.3 90168.8 90061.1 89876.5 89585.8
          90241 90210.8 90137.5 89994 89734 89276.2 90227.8 90186 90082.2 89869.4 89446.1 88546.3
          90214.1 90158.9 90017.7 89707.1 88988.6 86843.2 90205.4 90140.2 89966.4 89540.7 88163.2 78123.7
          90206.4 90140.6 89962.9 89519.5 88064.9 77905.6 90217.6 90162.2 90016.9 89685 88887.5 86639.1
          90234.3 90195.1 90096.1 89890.7 89491.4 88754.4 90250.7 90226.7 90168.2 90055.7 89866.4 89596.7
          90263.2 90250.2 90219.6 90163.8 90078.8 89976.5 90270.9 90264.7 90250.3 90225 90188.9 90149.8
          90275 90272.3 90266 90255.2 90240.4 90225.4 90276.7 90275.3 90272.2 90267 90260 90253.3
          90195.6 90175 90125 90029.5 89868.7 89630.3 90188.5 90161.7 90096 89968.3 89745.5 89393
          90176.2 90138 90043 89851.5 89495.7 88870.5 90162.2 90110 89976.2 89689.9 89099.2 87879.3
          90151.6 90087 89914.4 89508.5 88487.8 85543.2 90149.8 90081 89890.5 89397 87706.9 76380.2
          90158.6 90098.4 89932.9 89512 88116.5 78242 90174.5 90131.2 90017.5 89762.4 89174.9 87521.9
          90191 90164.3 90097.6 89962.1 89710.8 89273.5 90203.7 90189.4 90154.7 90089.3 89983.5 89843.2
          90211.8 90204.9 90188.8 90159.6 90116.5 90067.3 90216 90213 90206 90193.8 90176.6 90158.7
          90217.7 90216.2 90212.8 90207 90199.1 90191.2
        </DataArray>
        <DataArray type="Float32" Name="saturation" NumberOfComponents="1" format="ascii">
          0.108994 0.108902 0.108737 0.108547 0.108416 0.108285 0.108925 0.108792 0.108536 0.108224 0.108122 0.107992
          0.108815 0.108594 0.10811 0.107369 0.107517 0.107402 0.108735 0.108407 0.107499 0.105614 0.10671 0.106594
          0.108782 0.108537 0.107988 0.107119 0.106859 0.106121 0.108872 0.108692 0.108309 0.107692 0.106827 0.105248
          0.108952 0.108801 0.108462 0.107832 0.106702 0.105117 0.109015 0.108875 0.108529 0.107679 0.105548 0.100957
          0.109074 0.108959 0.108683 0.108124 0.107046 0.105363 0.109133 0.10905 0.108863 0.108534 0.108022 0.10733
          0.109185 0.109131 0.109016 0.108834 0.108596 0.108379 0.109223 0.109189 0.10912 0.10902 0.108907 0.108828
          0.109243 0.109219 0.109172 0.109108 0.109041 0.109001 0.108892 0.10878 0.108573 0.108329 0.108217 0.108111
          0.108803 0.108625 0.108252 0.107685 0.107754 0.107718 0.108652 0.108309 0.107391 0.105586 0.106682 0.106786
          0.108529 0.107872 0.105644 0.10094 0.105204 0.105288 0.108631 0.10827 0.107313 0.105508 0.106091 0.105124
          0.108775 0.108566 0.108106 0.107327 0.106647 0.105186 0.108894 0.108749 0.108436 0.107902 0.107011 0.10532
          0.108981 0.108866 0.108608 0.108122 0.107185 0.105484 0.10905 0.108962 0.108768 0.10843 0.107908 0.107176
          0.109106 0.109045 0.108913 0.108703 0.108423 0.108148 0.109151 0.109111 0.10903 0.108907 0.108763 0.108651
          0.109182 0.109157 0.109108 0.109038 0.108963 0.108913 0.109198 0.109181 0.109146 0.1091 0.109054 0.109026
          0.108832 0.108716 0.108498 0.108231 0.108067 0.107935 0.108741 0.108558 0.108171 0.107554 0.107363 0.107303
          0.108589 0.10824 0.107309 0.105522 0.105422 0.105437 0.108465 0.107804 0.105611 0.100957 0.100915 0.100917
          0.108572 0.108209 0.10725 0.105475 0.105156 0.100912 0.108727 0.108523 0.108078 0.107331 0.10665 0.105285
          0.108859 0.108729 0.108459 0.10804 0.107482 0.106588 0.108957 0.108865 0.108673 0.108363 0.107918 0.107288
          0.109028 0.108963 0.108827 0.108616 0.108336 0.108044 0.10908 0.109036 0.108947 0.108813 0.108653 0.108516
          0.109117 0.10909 0.109035 0.108956 0.108868 0.108804 0.109142 0.109125 0.109091 0.109045 0.108998 0.108966
          0.109153 0.109141 0.109119 0.109088 0.109058 0.109039 0.108812 0.10871 0.108521 0.108288 0.108094 0.107919
          0.108738 0.10859 0.108299 0.107916 0.107661 0.107506 0.108621 0.108379 0.107848 0.107021 0.106649 0.106572
          0.108538 0.108187 0.107246 0.105459 0.10521 0.105184 0.108599 0.108335 0.107743 0.106813 0.106125 0.10507
          0.108721 0.108547 0.108187 0.107651 0.107055 0.106238 0.10884 0.108727 0.108497 0.108154 0.107723 0.107203
          0.108934 0.108859 0.108705 0.108476 0.108184 0.107876 0.109002 0.108952 0.108852 0.108704 0.108526 0.108364
          0.109049 0.109017 0.108955 0.108865 0.108763 0.108681 0.10908 0.109061 0.109023 0.108972 0.108916 0.108875
          0.109098 0.109087 0.109065 0.109036 0.109005 0.108985 0.109107 0.109099 0.109084 0.109065 0.109046 0.109034
          0.10881 0.108721 0.108553 0.108333 0.108109 0.107904 0.108752 0.10863 0.108388 0.108054 0.107717 0.107531
          0.108662 0.108477 0.108081 0.107469 0.106787 0.106839 0.108599 0.108351 0.107753 0.106678 0.105294 0.105939
          0.108628 0.1084 0.107858 0.106838 0.105302 0.105033 0.108719 0.108556 0.108195 0.107581 0.106641 0.105329
          0.108821 0.108714 0.108487 0.108123 0.107603 0.106937 0.108907 0.108839 0.108699 0.108484 0.108204 0.107917
          0.108969 0.108928 0.108844 0.10872 0.108572 0.108443 0.109011 0.108987 0.108939 0.10887 0.108793 0.108731
          0.109037 0.109023 0.108997 0.10896 0.10892 0.108891 0.109051 0.109043 0.109029 0.109009 0.108989 0.108975
          0.109057 0.109053 0.109043 0.109031 0.109019 0.109011 0.108807 0.108728 0.108571 0.108345 0.108083 0.107888
          0.10876 0.108651 0.10842 0.108043 0.107491 0.107426 0.108687 0.108518 0.108109 0.107229 0.105526 0.106401
          0.10863 0.108388 0.107626 0.105539 0.100944 0.105052 0.108641 0.108402 0.107642 0.10554 0.100935 0.100904
          0.108713 0.108545 0.108119 0.107141 0.105317 0.100943 0.1088 0.108693 0.108449 0.107992 0.10711 0.105519
          0.108876 0.108811 0.108672 0.10844 0.108088 0.107594 0.108932 0.108895 0.108818 0.1087 0.108548 0.108401
          0.108969 0.108948 0.108908 0.108848 0.108779 0.108722 0.10899 0.10898 0.108959 0.10893 0.108898 0.108873
          0.109001 0.108996 0.108986 0.108972 0.108957 0.108946 0.109006 0.109003 0.108997 0.108989 0.108981 0.108975
          0.108801 0.108734 0.108596 0.10839 0.108135 0.107884 0.108765 0.108675 0.108481 0.108167 0.107728 0.107239
          0.10871 0.108576 0.108267 0.107692 0.106723 0.105402 0.108666 0.108487 0.108024 0.106972 0.105225 0.100925
          0.108669 0.108489 0.108021 0.106957 0.105211 0.100911 0.108718 0.108578 0.108226 0.107408 0.105489 0.100932
          0.108786 0.108691 0.108472 0.108049 0.107184 0.105515 0.108847 0.10879 0.108663 0.108446 0.108102 0.10758
          0.108894 0.108861 0.108793 0.108685 0.108541 0.108393 0.108924 0.108907 0.108872 0.10882 0.108758 0.108704
          0.108942 0.108934 0.108917 0.108893 0.108866 0.108844 0.108951 0.108947 0.108939 0.108928 0.108916 0.108907
          0.108955 0.108952 0.108948 0.108942 0.108936 0.108931 0.108791 0.108737 0.108623 0.108445 0.108206 0.107936
          0.108765 0.108694 0.108539 0.108279 0.107884 0.107313 0.108726 0.108625 0.108393 0.107947 0.107075 0.105462
          0.108695 0.108568 0.108248 0.107477 0.105515 0.100961 0.108696 0.10857 0.108268 0.10767 0.106576 0.105101
          0.108728 0.108625 0.108382 0.107914 0.107017 0.105424 0.108775 0.108702 0.108537 0.108243 0.107766 0.107055
          0.108821 0.108775 0.108674 0.108507 0.108269 0.107995 0.108856 0.10883 0.108774 0.108686 0.108573 0.108464
          0.10888 0.108866 0.108837 0.108795 0.108743 0.108697 0.108893 0.108887 0.108873 0.108854 0.108831 0.108812
          0.1089 0.108897 0.108891 0.108882 0.108873 0.108865 0.108903 0.108901 0.108898 0.108894 0.108889 0.108885
          0.108774 0.108733 0.108643 0.108498 0.108295 0.10805 0.108757 0.108704 0.108587 0.108389 0.108093 0.107707
          0.108731 0.108659 0.108494 0.108193 0.107684 0.106894 0.10871 0.108622 0.108413 0.107993 0.107105 0.105427
          0.10871 0.108622 0.10842 0.108047 0.107411 0.106391 0.10873 0.108655 0.108487 0.108187 0.107704 0.106986
          0.10876 0.108706 0.108584 0.108377 0.108071 0.107692 0.108792 0.108756 0.108678 0.108551 0.108377 0.108189
          0.108817 0.108796 0.108752 0.108681 0.108591 0.108501 0.108834 0.108823 0.1088 0.108765 0.108721 0.10868
          0.108844 0.108839 0.108828 0.108812 0.108792 0.108774 0.108849 0.108847 0.108842 0.108835 0.108826 0.108819
          0.108851 0.10885 0.108848 0.108844 0.10884 0.108836 0.10875 0.108718 0.108648 0.10853 0.108352 0.108112
          0.108738 0.108699 0.10861 0.108455 0.108212 0.107862 0.108721 0.108668 0.108549 0.10833 0.107967 0.107397
          0.108706 0.108643 0.108496 0.108217 0.107722 0.106891 0.108704 0.108639 0.108489 0.108209 0.10772 0.106849
          0.108715 0.108658 0.108526 0.108285 0.10789 0.107296 0.108735 0.108691 0.10859 0.108415 0.108147 0.107797
          0.108756 0.108726 0.10866 0.108547 0.108386 0.108199 0.108775 0.108757 0.108717 0.108653 0.108565 0.108472
          0.108788 0.108778 0.108757 0.108724 0.10868 0.108637 0.108795 0.108791 0.108781 0.108765 0.108745 0.108726
          0.108799 0.108797 0.108793 0.108786 0.108777 0.108769 0.108801 0.1088 0.108797 0.108794 0.10879 0.108786
          0.108717 0.108693 0.108637 0.108536 0.108373 0.108126 0.108709 0.108678 0.108607 0.108476 0.108252 0.107863
          0.108696 0.108655 0.108559 0.108375 0.108035 0.107302 0.108684 0.108634 0.108513 0.108275 0.107823 0.106908
          0.10868 0.108625 0.108491 0.108221 0.107687 0.106628 0.108685 0.108633 0.108506 0.108253 0.107767 0.10685
          0.108697 0.108655 0.108555 0.108363 0.108034 0.107535 0.108714 0.108684 0.108616 0.108491 0.108294 0.108037
          0.108728 0.10871 0.108669 0.108597 0.108491 0.108367 0.108739 0.108729 0.108707 0.10867 0.108618 0.108562
          0.108746 0.108741 0.108731 0.108713 0.10869 0.108666 0.108749 0.108747 0.108742 0.108735 0.108725 0.108715
          0.10875 0.108749 0.108747 0.108743 0.108739 0.108734 0.108678 0.108658 0.108613 0.108527 0.108387 0.108182
          0.108671 0.108647 0.108587 0.108475 0.108284 0.107981 0.108661 0.108626 0.108544 0.108382 0.108089 0.10757
          0.108649 0.108605 0.108494 0.108265 0.107809 0.106863 0.108642 0.10859 0.108454 0.108151 0.107384 0.105451
          0.108643 0.10859 0.108452 0.108137 0.107339 0.105436 0.108652 0.108607 0.108493 0.10825 0.107752 0.106796
          0.108666 0.108634 0.108555 0.108398 0.108118 0.107679 0.108679 0.10866 0.108612 0.108523 0.10838 0.108189
          0.10869 0.108679 0.108654 0.108609 0.108541 0.108462 0.108696 0.108691 0.108679 0.108658 0.108629 0.108597
          0.1087 0.108697 0.108692 0.108683 0.108671 0.108659 0.108701 0.1087 0.108697 0.108693 0.108687 0.108682
          0.108634 0.108618 0.108578 0.108503 0.108381 0.108212 0.108629 0.108607 0.108555 0.108456 0.108292 0.108054
          0.108619 0.108588 0.108513 0.108369 0.108121 0.107742 0.108607 0.108566 0.108462 0.108253 0.107873 0.107258
          0.108599 0.108548 0.108415 0.10813 0.10754 0.106483 0.108597 0.108543 0.108398 0.108057 0.107185 0.105338
          0.108604 0.108556 0.108429 0.108132 0.107363 0.10546 0.108617 0.108582 0.108493 0.108304 0.107919 0.10711
          0.10863 0.108609 0.108556 0.108451 0.108268 0.107979 0.108641 0.108629 0.108601 0.108549 0.108467 0.108363
          0.108647 0.108642 0.108629 0.108605 0.108571 0.108532 0.108651 0.108648 0.108643 0.108633 0.108619 0.108604
          0.108652 0.108651 0.108648 0.108644 0.108637 0.108631
        </DataArray>
        <DataArray type="Float32" Name="process rank" NumberOfComponents="1" format="ascii">
          2 2 2 2 2 2 2 2 2 2 2 2
          2 2 2 2 2 2 2 2 2 2 2 2
          2 2 2 2 2 2 2 2 2 2 2 2
          2 2 2 2 2 2 2 2 2 2 2 2
          2 2 2 2 2 2 2 2 2 2 2 2
          2 2 2 2 2 2 2 2 2 2 2 2
          2 2 2 2 2 2 2 2 2 2 2 2
          2 2 2 2 2 2 2 2 2 2 2 2
          2 2 2 2 2 2 2 2 2 2 2 2
          2 2 2 2 2 2 2 2 2 2 2 2
          2 2 2 2 2 2 2 2 2 2 2 2
          2 2 2 2 2 2 2 2 2 2 2 2
          2 2 2 2 2 2 2 2 2 2 2 2
          2 2 2 2 2 2 2 2 2 2 2 2
          2 2 2 2 2 2 2 2 2 2 2 2
          2 2 2 2 2 2 2 2 2 2 2 2
          2 2 2 2 2 2 2 2 2 2 2 2
          2 2 2 2 2 2 2 2 2 2 2 2
          2 2 2 2 2 2 2 2 2 2 2 2
          2 2 2 2 2 2 2 2 2 2 2 2
          2 2 2 2 2 2 2 2 2 2 2 2
          2 2 2 2 2 2 2 2 2 2 2 2
          2 2 2 2 2 2 2 2 2 2 2 2
          2 2 2 2 2 2 2 2 2 2 2 2
          2 2 2 2 2 2 2 2 2 2 2 2
          2 2 2 2 2 2 2 2 2 2 2 2
          2 2 2 2 2 2 2 2 2 2 2 2
          2 2 2 2 2 2 2 2 2 2 2 2
          2 2 2 2 2 2 2 2 2 2 2 2
          2 2 2 2 2 2 2 2 2 2 2 2
          2 2 2 2 2 2 2 2 2 2 2 2
          2 2 2 2 2 2 2 2 2 2 2 2
          2 2 2 2 2 2 2 2 2 2 2 2
          2 2 2 2 2 2 2 2 2 2 2 2
          2 2 2 2 2 2 2 2 2 2 2 2
          2 2 2 2 2 2 2 2 2 2 2 2
          2 2 2 2 2 2 2 2 2 2 2 2
          2 2 2 2 2 2 2 2 2 2 2 2
          2 2 2 2 2 2 2 2 2 2 2 2
          2 2 2 2 2 2 2 2 2 2 2 2
          2 2 2 2 2 2 2 2 2 2 2 2
          2 2 2 2 2 2 2 2 2 2 2 2
          2 2 2 2 2 2 2 2 2 2 2 2
          2 2 2 2 2 2 2 2 2 2 2 2
          2 2 2 2 2 2 2 2 2 2 2 2
          2 2 2 2 2 2 2 2 2 2 2 2
          2 2 2 2 2 2 2 2 2 2 2 2
          2 2 2 2 2 2 2 2 2 2 2 2
          2 2 2 2 2 2 2 2 2 2 2 2
          2 2 2 2 2 2 2 2 2 2 2 2
          2 2 2 2 2 2 2 2 2 2 2 2
          2 2 2 2 2 2 2 2 2 2 2 2
          2 2 2 2 2 2 2 2 2 2 2 2
          2 2 2 2 2 2 2 2 2 2 2 2
          2 2 2 2 2 2 2 2 2 2 2 2
          2 2 2 2 2 2 2 2 2 2 2 2
          2 2 2 2 2 2 2 2 2 2 2 2
          2 2 2 2 2 2 2 2 2 2 2 2
          2 2 2 2 2 2 2 2 2 2 2 2
          2 2 2 2 2 2 2 2 2 2 2 2
          2 2 2 2 2 2 2 2 2 2 2 2
          2 2 2 2 2 2 2 2 2 2 2 2
          2 2 2 2 2 2 2 2 2 2 2 2
          2 2 2 2 2 2 2 2 2 2 2 2
          2 2 2 2 2 2 2 2 2 2 2 2
          2 2 2 2 2 2 2 2 2 2 2 2
          2 2 2 2 2 2 2 2 2 2 2 2
          2 2 2 2 2 2 2 2 2 2 2 2
          2 2 2 2 2 2 2 2 2 2 2 2
          2 2 2 2 2 2 2 2 2 2 2 2
          2 2 2 2 2 2 2 2 2 2 2 2
          2 2 2 2 2 2 2 2 2 2 2 2
          2 2 2 2 2 2 2 2 2 2 2 2
          2 2 2 2 2 2 2 2 2 2 2 2
          2 2 2 2 2 2 2 2 2 2 2 2
          2 2 2 2 2 2 2 2 2 2 2 2
          2 2 2 2 2 2 2 2 2 2 2 2
          2 2 2 2 2 2 2 2 2 2 2 2
          2 2 2 2 2 2 2 2 2 2 2 2
          2 2 2 2 2 2 2 2 2 2 2 2
          2 2 2 2 2 2 2 2 2 2 2 2
          2 2 2 2 2 2 2 2 2 2 2 2
          2 2 2 2 2 2 2 2 2 2 2 2
          2 2 2 2 2 2 2 2 2 2 2 2
          2 2 2 2 2 2
        </DataArray>
      </CellData>
      <Points>
        <DataArray type="Float32" Name="Coordinates" NumberOfComponents="3" format="ascii">
          -0.04 -0.04 -0.078 -0.0338462 -0.04 -0.078 -0.04 -0.0338462 -0.078 -0.0338462 -0.0338462 -0.078
          -0.04 -0.04 -0.072 -0.0338462 -0.04 -0.072 -0.04 -0.0338462 -0.072 -0.0338462 -0.0338462 -0.072
          -0.0276923 -0.04 -0.078 -0.0276923 -0.0338462 -0.078 -0.0276923 -0.04 -0.072 -0.0276923 -0.0338462 -0.072
          -0.0215385 -0.04 -0.078 -0.0215385 -0.0338462 -0.078 -0.0215385 -0.04 -0.072 -0.0215385 -0.0338462 -0.072
          -0.0153846 -0.04 -0.078 -0.0153846 -0.0338462 -0.078 -0.0153846 -0.04 -0.072 -0.0153846 -0.0338462 -0.072
          -0.00923077 -0.04 -0.078 -0.00923077 -0.0338462 -0.078 -0.00923077 -0.04 -0.072 -0.00923077 -0.0338462 -0.072
          -0.00307692 -0.04 -0.078 -0.00307692 -0.0338462 -0.078 -0.00307692 -0.04 -0.072 -0.00307692 -0.0338462 -0.072
          -0.04 -0.0276923 -0.078 -0.0338462 -0.0276923 -0.078 -0.04 -0.0276923 -0.072 -0.0338462 -0.0276923 -0.072
          -0.0276923 -0.0276923 -0.078 -0.0276923 -0.0276923 -0.072 -0.0215385 -0.0276923 -0.078 -0.0215385 -0.0276923 -0.072
          -0.0153846 -0.0276923 -0.078 -0.0153846 -0.0276923 -0.072 -0.00923077 -0.0276923 -0.078 -0.00923077 -0.0276923 -0.072
          -0.00307692 -0.0276923 -0.078 -0.00307692 -0.0276923 -0.072 -0.04 -0.0215385 -0.078 -0.0338462 -0.0215385 -0.078
          -0.04 -0.0215385 -0.072 -0.0338462 -0.0215385 -0.072 -0.0276923 -0.0215385 -0.078 -0.0276923 -0.0215385 -0.072
          -0.0215385 -0.0215385 -0.078 -0.0215385 -0.0215385 -0.072 -0.0153846 -0.0215385 -0.078 -0.0153846 -0.0215385 -0.072
          -0.00923077 -0.0215385 -0.078 -0.00923077 -0.0215385 -0.072 -0.00307692 -0.0215385 -0.078 -0.00307692 -0.0215385 -0.072
          -0.04 -0.0153846 -0.078 -0.0338462 -0.0153846 -0.078 -0.04 -0.0153846 -0.072 -0.0338462 -0.0153846 -0.072
          -0.0276923 -0.0153846 -0.078 -0.0276923 -0.0153846 -0.072 -0.0215385 -0.0153846 -0.078 -0.0215385 -0.0153846 -0.072
          -0.0153846 -0.0153846 -0.078 -0.0153846 -0.0153846 -0.072 -0.00923077 -0.0153846 -0.078 -0.00923077 -0.0153846 -0.072
          -0.00307692 -0.0153846 -0.078 -0.00307692 -0.0153846 -0.072 -0.04 -0.00923077 -0.078 -0.0338462 -0.00923077 -0.078
          -0.04 -0.00923077 -0.072 -0.0338462 -0.00923077 -0.072 -0.0276923 -0.00923077 -0.078 -0.0276923 -0.00923077 -0.072
          -0.0215385 -0.00923077 -0.078 -0.0215385 -0.00923077 -0.072 -0.0153846 -0.00923077 -0.078 -0.0153846 -0.00923077 -0.072
          -0.00923077 -0.00923077 -0.078 -0.00923077 -0.00923077 -0.072 -0.00307692 -0.00923077 -0.078 -0.00307692 -0.00923077 -0.072
          -0.04 -0.00307692 -0.078 -0.0338462 -0.00307692 -0.078 -0.04 -0.00307692 -0.072 -0.0338462 -0.00307692 -0.072
          -0.0276923 -0.00307692 -0.078 -0.0276923 -0.00307692 -0.072 -0.0215385 -0.00307692 -0.078 -0.0215385 -0.00307692 -0.072
          -0.0153846 -0.00307692 -0.078 -0.0153846 -0.00307692 -0.072 -0.00923077 -0.00307692 -0.078 -0.00923077 -0.00307692 -0.072
          -0.00307692 -0.00307692 -0.078 -0.00307692 -0.00307692 -0.072 -0.04 0.00307692 -0.078 -0.0338462 0.00307692 -0.078
          -0.04 0.00307692 -0.072 -0.0338462 0.00307692 -0.072 -0.0276923 0.00307692 -0.078 -0.0276923 0.00307692 -0.072
          -0.0215385 0.00307692 -0.078 -0.0215385 0.00307692 -0.072 -0.0153846 0.00307692 -0.078 -0.0153846 0.00307692 -0.072
          -0.00923077 0.00307692 -0.078 -0.00923077 0.00307692 -0.072 -0.00307692 0.00307692 -0.078 -0.00307692 0.00307692 -0.072
          -0.04 0.00923077 -0.078 -0.0338462 0.00923077 -0.078 -0.04 0.00923077 -0.072 -0.0338462 0.00923077 -0.072
          -0.0276923 0.00923077 -0.078 -0.0276923 0.00923077 -0.072 -0.0215385 0.00923077 -0.078 -0.0215385 0.00923077 -0.072
          -0.0153846 0.00923077 -0.078 -0.0153846 0.00923077 -0.072 -0.00923077 0.00923077 -0.078 -0.00923077 0.00923077 -0.072
          -0.00307692 0.00923077 -0.078 -0.00307692 0.00923077 -0.072 -0.04 0.0153846 -0.078 -0.0338462 0.0153846 -0.078
          -0.04 0.0153846 -0.072 -0.0338462 0.0153846 -0.072 -0.0276923 0.0153846 -0.078 -0.0276923 0.0153846 -0.072
          -0.0215385 0.0153846 -0.078 -0.0215385 0.0153846 -0.072 -0.0153846 0.0153846 -0.078 -0.0153846 0.0153846 -0.072
          -0.00923077 0.0153846 -0.078 -0.00923077 0.0153846 -0.072 -0.00307692 0.0153846 -0.078 -0.00307692 0.0153846 -0.072
          -0.04 0.0215385 -0.078 -0.0338462 0.0215385 -0.078 -0.04 0.0215385 -0.072 -0.0338462 0.0215385 -0.072
          -0.0276923 0.0215385 -0.078 -0.0276923 0.0215385 -0.072 -0.0215385 0.0215385 -0.078 -0.0215385 0.0215385 -0.072
          -0.0153846 0.0215385 -0.078 -0.0153846 0.0215385 -0.072 -0.00923077 0.0215385 -0.078 -0.00923077 0.0215385 -0.072
          -0.00307692 0.0215385 -0.078 -0.00307692 0.0215385 -0.072 -0.04 0.0276923 -0.078 -0.0338462 0.0276923 -0.078
          -0.04 0.0276923 -0.072 -0.0338462 0.0276923 -0.072 -0.0276923 0.0276923 -0.078 -0.0276923 0.0276923 -0.072
          -0.0215385 0.0276923 -0.078 -0.0215385 0.0276923 -0.072 -0.0153846 0.0276923 -0.078 -0.0153846 0.0276923 -0.072
          -0.00923077 0.0276923 -0.078 -0.00923077 0.0276923 -0.072 -0.00307692 0.0276923 -0.078 -0.00307692 0.0276923 -0.072
          -0.04 0.0338462 -0.078 -0.0338462 0.0338462 -0.078 -0.04 0.0338462 -0.072 -0.0338462 0.0338462 -0.072
          -0.0276923 0.0338462 -0.078 -0.0276923 0.0338462 -0.072 -0.0215385 0.0338462 -0.078 -0.0215385 0.0338462 -0.072
          -0.0153846 0.0338462 -0.078 -0.0153846 0.0338462 -0.072 -0.00923077 0.0338462 -0.078 -0.00923077 0.0338462 -0.072
          -0.00307692 0.0338462 -0.078 -0.00307692 0.0338462 -0.072 -0.04 0.04 -0.078 -0.0338462 0.04 -0.078
          -0.04 0.04 -0.072 -0.0338462 0.04 -0.072 -0.0276923 0.04 -0.078 -0.0276923 0.04 -0.072
          -0.0215385 0.04 -0.078 -0.0215385 0.04 -0.072 -0.0153846 0.04 -0.078 -0.0153846 0.04 -0.072
          -0.00923077 0.04 -0.078 -0.00923077 0.04 -0.072 -0.00307692 0.04 -0.078 -0.00307692 0.04 -0.072
          -0.04 -0.04 -0.066 -0.0338462 -0.04 -0.066 -0.04 -0.0338462 -0.066 -0.0338462 -0.0338462 -0.066
          -0.0276923 -0.04 -0.066 -0.0276923 -0.0338462 -0.066 -0.0215385 -0.04 -0.066 -0.0215385 -0.0338462 -0.066
          -0.0153846 -0.04 -0.066 -0.0153846 -0.0338462 -0.066 -0.00923077 -0.04 -0.066 -0.00923077 -0.0338462 -0.066
          -0.00307692 -0.04 -0.066 -0.00307692 -0.0338462 -0.066 -0.04 -0.0276923 -0.066 -0.0338462 -0.0276923 -0.066
          -0.0276923 -0.0276923 -0.066 -0.0215385 -0.0276923 -0.066 -0.0153846 -0.0276923 -0.066 -0.00923077 -0.0276923 -0.066
          -0.00307692 -0.0276923 -0.066 -0.04 -0.0215385 -0.066 -0.0338462 -0.0215385 -0.066 -0.0276923 -0.0215385 -0.066
          -0.0215385 -0.0215385 -0.066 -0.0153846 -0.0215385 -0.066 -0.00923077 -0.0215385 -0.066 -0.00307692 -0.0215385 -0.066
          -0.04 -0.0153846 -0.066 -0.0338462 -0.0153846 -0.066 -0.0276923 -0.0153846 -0.066 -0.0215385 -0.0153846 -0.066
          -0.0153846 -0.0153846 -0.066 -0.00923077 -0.0153846 -0.066 -0.00307692 -0.0153846 -0.066 -0.04 -0.00923077 -0.066
          -0.0338462 -0.00923077 -0.066 -0.0276923 -0.00923077 -0.066 -0.0215385 -0.00923077 -0.066 -0.0153846 -0.00923077 -0.066
          -0.00923077 -0.00923077 -0.066 -0.00307692 -0.00923077 -0.066 -0.04 -0.00307692 -0.066 -0.0338462 -0.00307692 -0.066
          -0.0276923 -0.00307692 -0.066 -0.0215385 -0.00307692 -0.066 -0.0153846 -0.00307692 -0.066 -0.00923077 -0.00307692 -0.066
          -0.00307692 -0.00307692 -0.066 -0.04 0.00307692 -0.066 -0.0338462 0.00307692 -0.066 -0.0276923 0.00307692 -0.066
          -0.0215385 0.00307692 -0.066 -0.0153846 0.00307692 -0.066 -0.00923077 0.00307692 -0.066 -0.00307692 0.00307692 -0.066
          -0.04 0.00923077 -0.066 -0.0338462 0.00923077 -0.066 -0.0276923 0.00923077 -0.066 -0.0215385 0.00923077 -0.066