<?xml version="1.0"?>
<VTKFile type="UnstructuredGrid" version="0.1" byte_order="LittleEndian">
  <UnstructuredGrid>
    <Piece NumberOfCells="936" NumberOfPoints="1274">
      <CellData Scalars="p (Pa)">
        <DataArray type="Float32" Name="p (Pa)" NumberOfComponents="1" format="ascii">
          91626.6 91624.6 91620.6 91614.9 91608.1 91601.4 91626 91623.8 91619.3 91612.8 91604.9 91597
          91625.1 91622.5 91617.3 91609.5 91599.9 91590 91624.3 91621.4 91615.4 91606.4 91595.1 91583.3
          91623.9 91620.7 91614.4 91604.9 91592.9 91580.3 91623.9 91620.9 91614.8 91605.7 91594.4 91582.6
          91624.5 91621.8 91616.4 91608.6 91598.9 91589.2 91625.5 91623.3 91618.9 91612.6 91605.2 91597.9
          91626.8 91625 91621.7 91617 91611.7 91606.8 91628 91626.8 91624.4 91621.2 91617.7 91614.5
          91629.2 91628.3 91626.7 91624.6 91622.4 91620.5 91630 91629.4 91628.3 91627 91625.5 91624.4
          91630.4 91630 91629.2 91628.2 91627.1 91626.4 91565.4 91562.5 91556.7 91548.4 91538.4 91528.6
          91564.5 91561.3 91554.7 91545.1 91533.4 91521.6 91563.2 91559.4 91551.6 91540 91525.4 91510.1
          91562 91557.6 91548.7 91535.1 91517.7 91498.8 91561.3 91556.7 91547.2 91532.8 91514.1 91493.5
          91561.4 91556.9 91547.7 91533.9 91516.3 91497.3 91562.1 91558.1 91549.9 91538 91523.2 91507.9
          91563.5 91560.1 91553.4 91543.8 91532.4 91521.3 91565.2 91562.6 91557.4 91550.2 91542.1 91534.7
          91567.1 91565.1 91561.5 91556.5 91551.1 91546.4 91568.8 91567.4 91564.9 91561.6 91558.2 91555.5
          91570 91569.1 91567.4 91565.3 91563.1 91561.5 91570.7 91570 91568.7 91567.1 91565.6 91564.5
          91501.3 91496.4 91486.5 91472.2 91454.9 91438 91499.8 91494.2 91482.9 91466.2 91445.5 91424.3
          91497.6 91490.9 91477.3 91456.6 91430 91401.3 91495.4 91487.8 91472 91447.5 91415 91377.8
          91494.1 91486 91469.2 91443 91407.8 91366.2 91494.1 91486.1 91469.9 91444.9 91412 91374.5
          91495.2 91488 91473.4 91451.6 91424.2 91395.2 91497.3 91491.2 91478.9 91461.3 91440.2 91419.7
          91500.1 91495.3 91485.8 91472.5 91457.5 91444.1 91503.3 91499.8 91492.9 91483.6 91473.6 91465.4
          91506.3 91503.8 91499.1 91493 91486.7 91481.9 91508.6 91506.9 91503.7 91499.7 91495.8 91492.9
          91509.8 91508.5 91506.1 91503.2 91500.3 91498.4 91433.5 91425.1 91408 91383 91352.6 91322.7
          91431 91421.3 91401.4 91371.7 91334.2 91295.3 91427 91415.3 91391 91353.4 91303.5 91247.3
          91423.1 91409.6 91381.2 91335.9 91272.9 91195.4 91420.8 91406.5 91376.1 91327.5 91258.3 91168.3
          91420.5 91406.4 91376.9 91330.7 91267.1 91189.3 91422 91409 91382.3 91341.7 91289.2 91231.6
          91425.2 91413.9 91391.1 91357.6 91317 91277.3 91430 91420.9 91402.8 91377.4 91348.4 91323.2
          91435.5 91428.8 91415.7 91397.8 91378.7 91363.6 91440.9 91436.2 91427.3 91415.5 91403.6 91394.9
          91445 91441.8 91435.8 91428.2 91420.8 91415.7 91447.2 91444.8 91440.3 91434.7 91429.4 91425.9
          91361.3 91347.3 91318.9 91276.6 91224.7 91173.1 91357 91340.7 91307.2 91255.7 91189.3 91118.9
          91350.2 91330.3 91288.4 91221.3 91128.5 91018.4 91343.7 91320.6 91270.9 91188.4 91066.2 90900.3
          91339.7 91315.1 91262.2 91173.7 91038.5 90835.2 91338.8 91314.5 91263 91179.3 91058 90894.4
          91340.6 91317.8 91270.2 91195.5 91095.2 90980.1 91345.2 91324.8 91282.9 91219.3 91138.9 91059.5
          91352.7 91336 91302.4 91253.6 91196.7 91148.1 91362 91349.6 91325.1 91291.2 91254.5 91226.6
          91371.2 91362.6 91346.1 91324.1 91301.7 91286.1 91378.4 91372.6 91361.6 91347.6 91333.9 91325
          91382.3 91377.9 91369.8 91359.5 91349.9 91344 91284.3 91262.5 91217.6 91149.4 91063.7 90978.1
          91277.3 91251.6 91197.4 91111.5 90996.8 90871.7 91266.4 91234.4 91164.7 91047.8 90875.6 90657.2
          91256 91218.3 91134.5 90986.6 90745.1 90367.8 91249.7 91209.8 91121.4 90965.4 90702.9 90220
          91247.6 91208.1 91122 90976 90749.5 90406.3 91249.1 91211 91129.1 90994.2 90800.7 90564.6
          91255 91219.8 91144.6 91022.3 90852 90666.5 91266.2 91236.9 91175.9 91082 90964.8 90862.5
          91281.2 91259.3 91215.2 91151.6 91079.8 91026.4 91296.3 91281.2 91252 91211.9 91170.2 91142.2
          91308.1 91298.1 91279 91254 91229.5 91214.3 91314.6 91307.1 91293.1 91275.3 91258.5 91248.5
          91203.2 91171.6 91105.2 91001.1 90865.2 90727.3 91192.6 91154.5 91071.8 90934.5 90738.8 90515.2
          91175.9 91127.2 91016.8 90816.5 90486.3 90012 91160.3 91102.2 90965.9 90698.6 90174.6 89041.7
          91151.1 91090.2 90949.9 90683.8 90176.1 88905.2 91147.4 91086.8 90950.6 90706.5 90296.2 89591.7
          91147.7 91087.2 90951.7 90710.8 90322.5 89781.4 91154.1 91095.8 90963.6 90720.6 90294.9 89564.9
          91169.9 91120.7 91012.9 90830.4 90567.1 90292.9 91192.4 91155.9 91079.6 90961.7 90817 90703.5
          91215.7 91191 91141.6 91070.8 90993.4 90941.7 91234 91217.8 91186.4 91144.1 91101.5 91075.6
          91244 91232 91209.4 91180.1 91152 91135.9 91119.5 91077.3 90987 90840.1 90637.2 90420
          91104.5 91052.5 90936 90729.6 90402 89973 91080.9 91012.3 90848 90512.8 89827.5 88409.7
          91058.9 90975.3 90763.1 90257.8 88723.7 80222.4 91046.7 90960.5 90752.4 90318.1 89363.3 86774.1
          91041.1 90955 90754.4 90369.5 89662 88374.6 91039.1 90949.8 90737.8 90314.7 89479.8 87854.3
          91045 90954.4 90729 90217.6 88762.2 81053 91065.7 90988.3 90805.4 90447.3 89781 88630.5
          91097.5 91040.7 90915.2 90701.6 90397.3 90102.6 91130.9 91093.2 91014.8 90895.1 90751.9 90647.8
          91157.3 91133 91084.9 91017.2 90945.3 90900.9 91171.5 91154 91120.1 91074.9 91030.3 91004.9
          91034.4 90983.4 90873.5 90690.5 90422.8 90102.9 91014.7 90950.8 90805.1 90532.5 90036.1 89102.9
          90983.6 90897.1 90680.7 90175 88669.8 80359.8 90955.1 90847 90546.7 89533.6 81108 -1.34639e+06
          90940.5 90830.5 90553.2 89898.1 87914 76036.8 90934 90823.1 90556.2 90006.3 88847.2 86095.1
          90930.2 90810.5 90509 89813.2 87880.1 78297 90935.2 90806.9 90449.5 89282.5 80504.1 -1.3506e+06
          90960.5 90849 90560.1 89860 87858.9 78260.4 91002.1 90921.1 90730.2 90359.8 89687.5 88566.6
          91046.2 90993.5 90879 90689.1 90427.4 90185 91080.9 91047.8 90980 90879.7 90764.8 90686.8
          91099.6 91076 91029.6 90965.5 90899.5 90861.2 90946.1 90889.3 90770.4 90579.9 90311.8 89990.6
          90921 90849.9 90694.4 90424 89984.6 89301.4 90882.1 90786.4 90562.5 90114.8 89182.1 86885.8
          90848 90729.2 90433.3 89739.6 87644.5 75241.2 90832.9 90708.2 90407.9 89773.1 88308.2 84382.4
          90829.2 90700.7 90394.5 89774.2 88507.6 85829.2 90828.5 90687.4 90330 89495.5 87156.1 75832.4
          90835.8 90681.1 90241.7 88768.2 78503.7 -1.36236e+06 90865.1 90724.1 90325.5 89012.4 79754.2 -1.34804e+06
          90914.8 90812.5 90556.1 89975 88394.7 80651 90967.8 90902.2 90753.9 90485.6 90038.9 89361.5
          91009.3 90968.7 90883.7 90751.5 90585.9 90452.9 91031.5 91003 90946 90865 90777.8 90724.4
          90847.8 90784.5 90657.9 90470.7 90228.8 89936.6 90814 90733.1 90565.9 90304.9 89936.1 89371
          90761.9 90650.1 90405.4 89980.7 89267.5 87490.2 90719.8 90578.9 90249.8 89590.3 88057.1 78073.5
          90710.9 90565.8 90228.3 89550.8 87835 76863.7 90721.3 90576.6 90237.2 89560.5 88121 84313.9
          90734.6 90581.3 90200.3 89351.8 87138.1 75275.1 90752.5 90588.6 90143.9 88949.6 85302.1 66803.8
          90788.6 90636.5 90204 88767.2 78839.3 -1.36077e+06 90844.1 90733.2 90451.7 89799.4 87980.9 79488.5
          90901.8 90830.9 90668.6 90369.3 89856.1 89061.2 90946.4 90902.8 90810.6 90665 90478.6 90325.7
          90970.1 90939.6 90878.4 90790.2 90693.8 90634 90734.3 90657.6 90511.3 90318.1 90114 89879.2
          90684.2 90580 90372.9 90089.3 89813.9 89443.3 90606.1 90449.1 90107.8 89577.4 89155.1 88354.3
          90547.7 90337.2 89817.9 88714.5 88160.7 86071.6 90558.9 90366.2 89918.8 89091.4 87873.5 84485.5
          90602.6 90432.7 90035.5 89241 87328.5 75967.1 90645.6 90481.3 90070.7 89119.6 86385.3 71414.7
          90684.2 90517.5 90050 88509.4 77962.1 -1.36312e+06 90732.6 90585.4 90171.7 88818 79343.3 -1.35878e+06
          90792.4 90687 90423.1 89825.3 88194.6 80227.3 90850.1 90783.1 90631.1 90355.4 89893.1 89184.5
          90893.6 90852.4 90765.9 90630.5 90459.3 90319.6 90916.4 90887.7 90830.1 90747.6 90657.9 90602.1
        </DataArray>
        <DataArray type="Float32" Name="saturation" NumberOfComponents="1" format="ascii">
          0.110111 0.110109 0.110104 0.110096 0.110087 0.110079 0.110111 0.110108 0.110102 0.110093 0.110083 0.110073
          0.110109 0.110106 0.110099 0.110089 0.110077 0.110064 0.110108 0.110105 0.110097 0.110085 0.110071 0.110055
          0.110108 0.110104 0.110095 0.110083 0.110068 0.110051 0.110108 0.110104 0.110096 0.110084 0.11007 0.110054
          0.110109 0.110105 0.110098 0.110088 0.110075 0.110063 0.11011 0.110107 0.110101 0.110093 0.110083 0.110074
          0.110112 0.110109 0.110105 0.110099 0.110092 0.110086 0.110113 0.110112 0.110108 0.110104 0.1101 0.110096
          0.110115 0.110114 0.110111 0.110109 0.110106 0.110103 0.110116 0.110115 0.110114 0.110112 0.11011 0.110109
          0.110116 0.110116 0.110115 0.110113 0.110112 0.110111 0.110032 0.110029 0.110021 0.110011 0.109998 0.109986
          0.110031 0.110027 0.110019 0.110007 0.109992 0.109977 0.11003 0.110025 0.110015 0.11 0.109982 0.109963
          0.110028 0.110023 0.110011 0.109994 0.109972 0.109949 0.110027 0.110021 0.110009 0.109991 0.109968 0.109942
          0.110027 0.110022 0.11001 0.109992 0.10997 0.109947 0.110028 0.110023 0.110013 0.109998 0.109979 0.10996
          0.11003 0.110026 0.110017 0.110005 0.109991 0.109977 0.110032 0.110029 0.110022 0.110013 0.110003 0.109993
          0.110035 0.110032 0.110027 0.110021 0.110014 0.110008 0.110037 0.110035 0.110032 0.110028 0.110023 0.11002
          0.110038 0.110037 0.110035 0.110032 0.11003 0.110027 0.110039 0.110038 0.110037 0.110035 0.110033 0.110031
          0.109952 0.109945 0.109933 0.109915 0.109894 0.109874 0.10995 0.109943 0.109929 0.109908 0.109883 0.109857
          0.109947 0.109939 0.109922 0.109896 0.109864 0.109829 0.109944 0.109935 0.109915 0.109885 0.109846 0.109801
          0.109943 0.109933 0.109912 0.10988 0.109837 0.109787 0.109943 0.109933 0.109913 0.109882 0.109842 0.109797
          0.109944 0.109935 0.109917 0.10989 0.109857 0.109822 0.109947 0.109939 0.109924 0.109902 0.109876 0.109851
          0.10995 0.109944 0.109932 0.109916 0.109897 0.109881 0.109954 0.10995 0.109941 0.10993 0.109917 0.109907
          0.109958 0.109955 0.109949 0.109941 0.109933 0.109927 0.109961 0.109959 0.109955 0.10995 0.109945 0.109941
          0.109962 0.109961 0.109958 0.109954 0.10995 0.109948 0.109868 0.109858 0.109837 0.109807 0.109771 0.109736
          0.109865 0.109853 0.109829 0.109794 0.109749 0.109704 0.10986 0.109846 0.109817 0.109772 0.109713 0.109649
          0.109855 0.109839 0.109805 0.109751 0.109678 0.10959 0.109853 0.109835 0.109799 0.109741 0.109661 0.10956
          0.109852 0.109835 0.1098 0.109745 0.109671 0.109583 0.109854 0.109838 0.109806 0.109758 0.109697 0.109631
          0.109858 0.109844 0.109817 0.109777 0.109729 0.109683 0.109864 0.109853 0.109831 0.1098 0.109766 0.109736
          0.109871 0.109862 0.109846 0.109825 0.109802 0.109784 0.109877 0.109871 0.10986 0.109846 0.109832 0.109821
          0.109882 0.109878 0.109871 0.109862 0.109853 0.109846 0.109885 0.109882 0.109876 0.10987 0.109863 0.109859
          0.109781 0.109765 0.109731 0.109682 0.109623 0.109565 0.109776 0.109757 0.109718 0.109658 0.109583 0.109505
          0.109768 0.109745 0.109696 0.109619 0.109516 0.109397 0.10976 0.109733 0.109676 0.109582 0.109448 0.109275
          0.109756 0.109727 0.109666 0.109566 0.109418 0.109209 0.109755 0.109726 0.109667 0.109572 0.109439 0.109269
          0.109757 0.10973 0.109675 0.10959 0.109479 0.109357 0.109762 0.109738 0.109689 0.109617 0.109527 0.109441
          0.109771 0.109751 0.109712 0.109656 0.109591 0.109537 0.109782 0.109767 0.109739 0.109699 0.109657 0.109625
          0.109793 0.109783 0.109763 0.109737 0.109711 0.109693 0.109802 0.109795 0.109782 0.109765 0.109749 0.109738
          0.109806 0.109801 0.109791 0.109779 0.109768 0.109761 0.109691 0.109666 0.109615 0.109539 0.109445 0.109355
          0.109683 0.109653 0.109592 0.109497 0.109374 0.109246 0.10967 0.109634 0.109556 0.109428 0.10925 0.109037
          0.109658 0.109616 0.109522 0.109364 0.109121 0.108778 0.109651 0.109606 0.109508 0.109342 0.109081 0.108654
          0.109649 0.109604 0.109509 0.109353 0.109125 0.108811 0.109651 0.109607 0.109516 0.109372 0.109175 0.108952
          0.109657 0.109617 0.109533 0.109401 0.109226 0.109046 0.10967 0.109637 0.109568 0.109465 0.109341 0.109237
          0.109687 0.109662 0.109612 0.109541 0.109463 0.109406 0.109705 0.109688 0.109654 0.109608 0.109562 0.109531
          0.109719 0.109707 0.109685 0.109656 0.109628 0.109611 0.109726 0.109717 0.109701 0.109681 0.109661 0.10965
          0.109599 0.109563 0.10949 0.109379 0.109239 0.109104 0.109587 0.109544 0.109454 0.10931 0.109115 0.108907
          0.109568 0.109514 0.109395 0.109191 0.108881 0.108489 0.109551 0.109487 0.109342 0.109077 0.108617 0.10784
          0.10954 0.109474 0.109326 0.109063 0.108618 0.107762 0.109536 0.10947 0.109326 0.109084 0.108717 0.108186
          0.109537 0.109471 0.109328 0.109088 0.108739 0.108318 0.109544 0.10948 0.10934 0.109098 0.108716 0.108167
          0.109561 0.109507 0.109391 0.109205 0.108954 0.108715 0.109586 0.109546 0.109462 0.109338 0.109191 0.109081
          0.109613 0.109585 0.10953 0.109453 0.109371 0.109317 0.109633 0.109615 0.10958 0.109533 0.109486 0.109458
          0.109645 0.109631 0.109606 0.109573 0.109542 0.109524 0.109506 0.10946 0.109364 0.109214 0.109019 0.108823
          0.109489 0.109433 0.109311 0.109106 0.108807 0.108459 0.109464 0.109391 0.109222 0.108905 0.108351 0.107502
          0.10944 0.109352 0.109139 0.108685 0.107662 0.10563 0.109427 0.109337 0.109128 0.108736 0.108035 0.10684
          0.109421 0.109331 0.10913 0.108779 0.108234 0.107484 0.109419 0.109326 0.109114 0.108733 0.108111 0.107247
          0.109425 0.10933 0.109106 0.108652 0.107683 0.105718 0.109448 0.109366 0.10918 0.108847 0.108318 0.107613
          0.109482 0.109421 0.10929 0.109079 0.108803 0.10856 0.109518 0.109477 0.109393 0.10927 0.109128 0.109029
          0.109547 0.109521 0.109468 0.109396 0.109321 0.109275 0.109563 0.109544 0.109506 0.109457 0.10941 0.109383
          0.109414 0.10936 0.109248 0.109069 0.108825 0.10856 0.109393 0.109327 0.10918 0.108923 0.108508 0.107876
          0.109361 0.109272 0.10906 0.108618 0.107634 0.105644 0.109331 0.109221 0.108936 0.108146 0.105724 0.100959
          0.109316 0.109205 0.108941 0.108403 0.107273 0.105318 0.109309 0.109197 0.108944 0.108485 0.10773 0.106632
          0.109305 0.109185 0.108902 0.108341 0.107258 0.105464 0.109311 0.109181 0.108849 0.107985 0.105659 0.100948
          0.109337 0.109223 0.108948 0.108375 0.107249 0.105461 0.10938 0.109296 0.109107 0.108771 0.108252 0.10758
          0.109427 0.109371 0.109253 0.109068 0.108829 0.108626 0.109464 0.109428 0.109357 0.109254 0.10914 0.109065
          0.109484 0.109459 0.109409 0.109342 0.109274 0.109235 0.109322 0.109264 0.109146 0.108966 0.10873 0.108473
          0.109296 0.109224 0.109073 0.108826 0.108468 0.107996 0.109256 0.109161 0.10895 0.108569 0.107923 0.106878
          0.109222 0.109106 0.108835 0.108288 0.107159 0.105276 0.109207 0.109086 0.108812 0.108312 0.107452 0.106221
          0.109203 0.109079 0.108801 0.108313 0.10755 0.106558 0.109203 0.109066 0.108746 0.108121 0.106972 0.105307
          0.10921 0.10906 0.108672 0.107686 0.10548 0.100916 0.109239 0.109101 0.108742 0.107823 0.105585 0.100955
          0.10929 0.109187 0.108944 0.108461 0.107494 0.105674 0.109344 0.109277 0.10913 0.108881 0.10851 0.108034
          0.109388 0.109345 0.109258 0.109127 0.108971 0.108852 0.109411 0.109381 0.109322 0.109239 0.109153 0.109101
          0.109222 0.109159 0.109038 0.108868 0.108661 0.108432 0.109188 0.10911 0.108953 0.108725 0.108432 0.10804
          0.109137 0.109031 0.10881 0.108465 0.107975 0.107098 0.109097 0.108965 0.108679 0.108185 0.107336 0.105448
          0.109088 0.108953 0.108661 0.108158 0.107239 0.105367 0.109098 0.108963 0.108668 0.108164 0.107365 0.106207
          0.109111 0.108967 0.108638 0.108028 0.106966 0.105278 0.109128 0.108974 0.108593 0.107787 0.106424 0.104999
          0.109163 0.109018 0.108641 0.107686 0.105506 0.10092 0.109218 0.10911 0.108851 0.108331 0.107302 0.105561
          0.109276 0.109205 0.109048 0.108779 0.108372 0.107851 0.109322 0.109277 0.109185 0.109045 0.108874 0.108742
          0.109347 0.109315 0.109253 0.109165 0.109072 0.109016 0.109111 0.109038 0.108904 0.108736 0.108569 0.108389
          0.109063 0.108966 0.108782 0.108549 0.108341 0.108087 0.10899 0.108848 0.108564 0.108176 0.107907 0.107475
          0.108936 0.108752 0.108344 0.107658 0.107383 0.106625 0.108947 0.108777 0.108419 0.107869 0.107255 0.106242
          0.108987 0.108834 0.108507 0.107959 0.107036 0.105314 0.109027 0.108877 0.108535 0.107886 0.106717 0.10512
          0.109063 0.108909 0.108519 0.107551 0.10544 0.100914 0.109109 0.108971 0.108615 0.107713 0.105549 0.100926
          0.109167 0.109066 0.108826 0.10835 0.107399 0.105631 0.109224 0.109158 0.109013 0.108767 0.108399 0.107924
          0.109268 0.109227 0.109141 0.109012 0.108857 0.108737 0.109291 0.109262 0.109204 0.109124 0.109038 0.108986
        </DataArray>
        <DataArray type="Float32" Name="process rank" NumberOfComponents="1" format="ascii">
          0 0 0 0 0 0 0 0 0 0 0 0
          0 0 0 0 0 0 0 0 0 0 0 0
          0 0 0 0 0 0 0 0 0 0 0 0
          0 0 0 0 0 0 0 0 0 0 0 0
          0 0 0 0 0 0 0 0 0 0 0 0
          0 0 0 0 0 0 0 0 0 0 0 0
          0 0 0 0 0 0 0 0 0 0 0 0
          0 0 0 0 0 0 0 0 0 0 0 0
          0 0 0 0 0 0 0 0 0 0 0 0
          0 0 0 0 0 0 0 0 0 0 0 0
          0 0 0 0 0 0 0 0 0 0 0 0
          0 0 0 0 0 0 0 0 0 0 0 0
          0 0 0 0 0 0 0 0 0 0 0 0
          0 0 0 0 0 0 0 0 0 0 0 0
          0 0 0 0 0 0 0 0 0 0 0 0
          0 0 0 0 0 0 0 0 0 0 0 0
          0 0 0 0 0 0 0 0 0 0 0 0
          0 0 0 0 0 0 0 0 0 0 0 0
          0 0 0 0 0 0 0 0 0 0 0 0
          0 0 0 0 0 0 0 0 0 0 0 0
          0 0 0 0 0 0 0 0 0 0 0 0
          0 0 0 0 0 0 0 0 0 0 0 0
          0 0 0 0 0 0 0 0 0 0 0 0
          0 0 0 0 0 0 0 0 0 0 0 0
          0 0 0 0 0 0 0 0 0 0 0 0
          0 0 0 0 0 0 0 0 0 0 0 0
          0 0 0 0 0 0 0 0 0 0 0 0
          0 0 0 0 0 0 0 0 0 0 0 0
          0 0 0 0 0 0 0 0 0 0 0 0
          0 0 0 0 0 0 0 0 0 0 0 0
          0 0 0 0 0 0 0 0 0 0 0 0
          0 0 0 0 0 0 0 0 0 0 0 0
          0 0 0 0 0 0 0 0 0 0 0 0
          0 0 0 0 0 0 0 0 0 0 0 0
          0 0 0 0 0 0 0 0 0 0 0 0
          0 0 0 0 0 0 0 0 0 0 0 0
          0 0 0 0 0 0 0 0 0 0 0 0
          0 0 0 0 0 0 0 0 0 0 0 0
          0 0 0 0 0 0 0 0 0 0 0 0
          0 0 0 0 0 0 0 0 0 0 0 0
          0 0 0 0 0 0 0 0 0 0 0 0
          0 0 0 0 0 0 0 0 0 0 0 0
          0 0 0 0 0 0 0 0 0 0 0 0
          0 0 0 0 0 0 0 0 0 0 0 0
          0 0 0 0 0 0 0 0 0 0 0 0
          0 0 0 0 0 0 0 0 0 0 0 0
          0 0 0 0 0 0 0 0 0 0 0 0
          0 0 0 0 0 0 0 0 0 0 0 0
          0 0 0 0 0 0 0 0 0 0 0 0
          0 0 0 0 0 0 0 0 0 0 0 0
          0 0 0 0 0 0 0 0 0 0 0 0
          0 0 0 0 0 0 0 0 0 0 0 0
          0 0 0 0 0 0 0 0 0 0 0 0
          0 0 0 0 0 0 0 0 0 0 0 0
          0 0 0 0 0 0 0 0 0 0 0 0
          0 0 0 0 0 0 0 0 0 0 0 0
          0 0 0 0 0 0 0 0 0 0 0 0
          0 0 0 0 0 0 0 0 0 0 0 0
          0 0 0 0 0 0 0 0 0 0 0 0
          0 0 0 0 0 0 0 0 0 0 0 0
          0 0 0 0 0 0 0 0 0 0 0 0
          0 0 0 0 0 0 0 0 0 0 0 0
          0 0 0 0 0 0 0 0 0 0 0 0
          0 0 0 0 0 0 0 0 0 0 0 0
          0 0 0 0 0 0 0 0 0 0 0 0
          0 0 0 0 0 0 0 0 0 0 0 0
          0 0 0 0 0 0 0 0 0 0 0 0
          0 0 0 0 0 0 0 0 0 0 0 0
          0 0 0 0 0 0 0 0 0 0 0 0
          0 0 0 0 0 0 0 0 0 0 0 0
          0 0 0 0 0 0 0 0 0 0 0 0
          0 0 0 0 0 0 0 0 0 0 0 0
          0 0 0 0 0 0 0 0 0 0 0 0
          0 0 0 0 0 0 0 0 0 0 0 0
          0 0 0 0 0 0 0 0 0 0 0 0
          0 0 0 0 0 0 0 0 0 0 0 0
          0 0 0 0 0 0 0 0 0 0 0 0
          0 0 0 0 0 0 0 0 0 0 0 0
        </DataArray>
      </CellData>
      <Points>
        <DataArray type="Float32" Name="Coordinates" NumberOfComponents="3" format="ascii">
          -0.04 -0.04 -0.15 -0.0338462 -0.04 -0.15 -0.04 -0.0338462 -0.15 -0.0338462 -0.0338462 -0.15
          -0.04 -0.04 -0.144 -0.0338462 -0.04 -0.144 -0.04 -0.0338462 -0.144 -0.0338462 -0.0338462 -0.144
          -0.0276923 -0.04 -0.15 -0.0276923 -0.0338462 -0.15 -0.0276923 -0.04 -0.144 -0.0276923 -0.0338462 -0.144
          -0.0215385 -0.04 -0.15 -0.0215385 -0.0338462 -0.15 -0.0215385 -0.04 -0.144 -0.0215385 -0.0338462 -0.144
          -0.0153846 -0.04 -0.15 -0.0153846 -0.0338462 -0.15 -0.0153846 -0.04 -0.144 -0.0153846 -0.0338462 -0.144
          -0.00923077 -0.04 -0.15 -0.00923077 -0.0338462 -0.15 -0.00923077 -0.04 -0.144 -0.00923077 -0.0338462 -0.144
          -0.00307692 -0.04 -0.15 -0.00307692 -0.0338462 -0.15 -0.00307692 -0.04 -0.144 -0.00307692 -0.0338462 -0.144
          -0.04 -0.0276923 -0.15 -0.0338462 -0.0276923 -0.15 -0.04 -0.0276923 -0.144 -0.0338462 -0.0276923 -0.144
          -0.0276923 -0.0276923 -0.15 -0.0276923 -0.0276923 -0.144 -0.0215385 -0.0276923 -0.15 -0.0215385 -0.0276923 -0.144
          -0.0153846 -0.0276923 -0.15 -0.0153846 -0.0276923 -0.144 -0.00923077 -0.0276923 -0.15 -0.00923077 -0.0276923 -0.144
          -0.00307692 -0.0276923 -0.15 -0.00307692 -0.0276923 -0.144 -0.04 -0.0215385 -0.15 -0.0338462 -0.0215385 -0.15
          -0.04 -0.0215385 -0.144 -0.0338462 -0.0215385 -0.144 -0.0276923 -0.0215385 -0.15 -0.0276923 -0.0215385 -0.144
          -0.0215385 -0.0215385 -0.15 -0.0215385 -0.0215385 -0.144 -0.0153846 -0.0215385 -0.15 -0.0153846 -0.0215385 -0.144
          -0.00923077 -0.0215385 -0.15 -0.00923077 -0.0215385 -0.144 -0.00307692 -0.0215385 -0.15 -0.00307692 -0.0215385 -0.144
          -0.04 -0.0153846 -0.15 -0.0338462 -0.0153846 -0.15 -0.04 -0.0153846 -0.144 -0.0338462 -0.0153846 -0.144
          -0.0276923 -0.0153846 -0.15 -0.0276923 -0.0153846 -0.144 -0.0215385 -0.0153846 -0.15 -0.0215385 -0.0153846 -0.144
          -0.0153846 -0.0153846 -0.15 -0.0153846 -0.0153846 -0.144 -0.00923077 -0.0153846 -0.15 -0.00923077 -0.0153846 -0.144
          -0.00307692 -0.0153846 -0.15 -0.00307692 -0.0153846 -0.144 -0.04 -0.00923077 -0.15 -0.0338462 -0.00923077 -0.15
          -0.04 -0.00923077 -0.144 -0.0338462 -0.00923077 -0.144 -0.0276923 -0.00923077 -0.15 -0.0276923 -0.00923077 -0.144
          -0.0215385 -0.00923077 -0.15 -0.0215385 -0.00923077 -0.144 -0.0153846 -0.00923077 -0.15 -0.0153846 -0.00923077 -0.144
          -0.00923077 -0.00923077 -0.15 -0.00923077 -0.00923077 -0.144 -0.00307692 -0.00923077 -0.15 -0.00307692 -0.00923077 -0.144
          -0.04 -0.00307692 -0.15 -0.0338462 -0.00307692 -0.15 -0.04 -0.00307692 -0.144 -0.0338462 -0.00307692 -0.144
          -0.0276923 -0.00307692 -0.15 -0.0276923 -0.00307692 -0.144 -0.0215385 -0.00307692 -0.15 -0.0215385 -0.00307692 -0.144
          -0.0153846 -0.00307692 -0.15 -0.0153846 -0.00307692 -0.144 -0.00923077 -0.00307692 -0.15 -0.00923077 -0.00307692 -0.144
          -0.00307692 -0.00307692 -0.15 -0.00307692 -0.00307692 -0.144 -0.04 0.00307692 -0.15 -0.0338462 0.00307692 -0.15
          -0.04 0.00307692 -0.144 -0.0338462 0.00307692 -0.144 -0.0276923 0.00307692 -0.15 -0.0276923 0.00307692 -0.144
          -0.0215385 0.00307692 -0.15 -0.0215385 0.00307692 -0.144 -0.0153846 0.00307692 -0.15 -0.0153846 0.00307692 -0.144
          -0.00923077 0.00307692 -0.15 -0.00923077 0.00307692 -0.144 -0.00307692 0.00307692 -0.15 -0.00307692 0.00307692 -0.144
          -0.04 0.00923077 -0.15 -0.0338462 0.00923077 -0.15 -0.04 0.00923077 -0.144 -0.0338462 0.00923077 -0.144
          -0.0276923 0.00923077 -0.15 -0.0276923 0.00923077 -0.144 -0.0215385 0.00923077 -0.15 -0.0215385 0.00923077 -0.144
          -0.0153846 0.00923077 -0.15 -0.0153846 0.00923077 -0.144 -0.00923077 0.00923077 -0.15 -0.00923077 0.00923077 -0.144
          -0.00307692 0.00923077 -0.15 -0.00307692 0.00923077 -0.144 -0.04 0.0153846 -0.15 -0.0338462 0.0153846 -0.15
          -0.04 0.0153846 -0.144 -0.0338462 0.0153846 -0.144 -0.0276923 0.0153846 -0.15 -0.0276923 0.0153846 -0.144
          -0.0215385 0.0153846 -0.15 -0.0215385 0.0153846 -0.144 -0.0153846 0.0153846 -0.15 -0.0153846 0.0153846 -0.144
          -0.00923077 0.0153846 -0.15 -0.00923077 0.0153846 -0.144 -0.00307692 0.0153846 -0.15 -0.00307692 0.0153846 -0.144
          -0.04 0.0215385 -0.15 -0.0338462 0.0215385 -0.15 -0.04 0.0215385 -0.144 -0.0338462 0.0215385 -0.144
          -0.0276923 0.0215385 -0.15 -0.0276923 0.0215385 -0.144 -0.0215385 0.0215385 -0.15 -0.0215385 0.0215385 -0.144
          -0.0153846 0.0215385 -0.15 -0.0153846 0.0215385 -0.144 -0.00923077 0.0215385 -0.15 -0.00923077 0.0215385 -0.144
          -0.00307692 0.0215385 -0.15 -0.00307692 0.0215385 -0.144 -0.04 0.0276923 -0.15 -0.0338462 0.0276923 -0.15
          -0.04 0.0276923 -0.144 -0.0338462 0.0276923 -0.144 -0.0276923 0.0276923 -0.15 -0.0276923 0.0276923 -0.144
          -0.0215385 0.0276923 -0.15 -0.0215385 0.0276923 -0.144 -0.0153846 0.0276923 -0.15 -0.0153846 0.0276923 -0.144
          -0.00923077 0.0276923 -0.15 -0.00923077 0.0276923 -0.144 -0.00307692 0.0276923 -0.15 -0.00307692 0.0276923 -0.144
          -0.04 0.0338462 -0.15 -0.0338462 0.0338462 -0.15 -0.04 0.0338462 -0.144 -0.0338462 0.0338462 -0.144
          -0.0276923 0.0338462 -0.15 -0.0276923 0.0338462 -0.144 -0.0215385 0.0338462 -0.15 -0.0215385 0.0338462 -0.144
          -0.0153846 0.0338462 -0.15 -0.0153846 0.0338462 -0.144 -0.00923077 0.0338462 -0.15 -0.00923077 0.0338462 -0.144
          -0.00307692 0.0338462 -0.15 -0.00307692 0.0338462 -0.144 -0.04 0.04 -0.15 -0.0338462 0.04 -0.15
          -0.04 0.04 -0.144 -0.0338462 0.04 -0.144 -0.0276923 0.04 -0.15 -0.0276923 0.04 -0.144
          -0.0215385 0.04 -0.15 -0.0215385 0.04 -0.144 -0.0153846 0.04 -0.15 -0.0153846 0.04 -0.144
          -0.00923077 0.04 -0.15 -0.00923077 0.04 -0.144 -0.00307692 0.04 -0.15 -0.00307692 0.04 -0.144
          -0.04 -0.04 -0.138 -0.0338462 -0.04 -0.138 -0.04 -0.0338462 -0.138 -0.0338462 -0.0338462 -0.138
          -0.0276923 -0.04 -0.138 -0.0276923 -0.0338462 -0.138 -0.0215385 -0.04 -0.138 -0.0215385 -0.0338462 -0.138
          -0.0153846 -0.04 -0.138 -0.0153846 -0.0338462 -0.138 -0.00923077 -0.04 -0.138 -0.00923077 -0.0338462 -0.138
          -0.00307692 -0.04 -0.138 -0.00307692 -0.0338462 -0.138 -0.04 -0.0276923 -0.138 -0.0338462 -0.0276923 -0.138
          -0.0276923 -0.0276923 -0.138 -0.0215385 -0.0276923 -0.138 -0.0153846 -0.0276923 -0.138 -0.00923077 -0.0276923 -0.138
          -0.00307692 -0.0276923 -0.138 -0.04 -0.0215385 -0.138 -0.0338462 -0.0215385 -0.138 -0.0276923 -0.0215385 -0.138
          -0.0215385 -0.0215385 -0.138 -0.0153846 -0.0215385 -0.138 -0.00923077 -0.0215385 -0.138 -0.00307692 -0.0215385 -0.138
          -0.04 -0.0153846 -0.138 -0.0338462 -0.0153846 -0.138 -0.0276923 -0.0153846 -0.138 -0.0215385 -0.0153846 -0.138
          -0.0153846 -0.0153846 -0.138 -0.00923077 -0.0153846 -0.138 -0.00307692 -0.0153846 -0.138 -0.04 -0.00923077 -0.138
          -0.0338462 -0.00923077 -0.138 -0.0276923 -0.00923077 -0.138 -0.0215385 -0.00923077 -0.138 -0.0153846 -0.00923077 -0.138
          -0.00923077 -0.00923077 -0.138 -0.00307692 -0.00923077 -0.138 -0.04 -0.00307692 -0.138 -0.0338462 -0.00307692 -0.138
          -0.0276923 -0.00307692 -0.138 -0.0215385 -0.00307692 -0.138 -0.0153846 -0.00307692 -0.138 -0.00923077 -0.00307692 -0.138
          -0.00307692 -0.00307692 -0.138 -0.04 0.00307692 -0.138 -0.0338462 0.00307692 -0.138 -0.0276923 0.00307692 -0.138
          -0.0215385 0.00307692 -0.138 -0.0153846 0.00307692 -0.138 -0.00923077 0.00307692 -0.138 -0.00307692 0.00307692 -0.138
          -0.04 0.00923077 -0.138 -0.0338462 0.00923077 -0.138 -0.0276923 0.00923077 -0.138 -0.0215385 0.00923077 -0.138
          -0.0153846 0.00923077 -0.138 -0.00923077 0.00923077 -0.138 -0.00307692 0.00923077 -0.138 -0.04 0.0153846 -0.138
          -0.0338462 0.0153846 -0.138 -0.0276923 0.0153846 -0.138 -0.0215385 0.0153846 -0.138 -0.0153846 0.0153846 -0.138
          -0.00923077 0.0153846 -0.138 -0.00307692 0.0153846 -0.138 -0.04 0.0215385 -0.138 -0.0338462 0.0215385 -0.138
          -0.0276923 0.0215385 -0.138 -0.0215385 0.0215385 -0.138 -0.0153846 0.0215385 -0.138 -0.00923077 0.0215385 -0.138
          -0.00307692 0.0215385 -0.138 -0.04 0.0276923 -0.138 -0.0338462 0.0276923 -0.138 -0.0276923 0.0276923 -0.138
          -0.0215385 0.0276923 -0.138 -0.0153846 0.0276923 -0.138 -0.00923077 0.0276923 -0.138 -0.00307692 0.0276923 -0.138
          -0.04 0.0338462 -0.138 -0.0338462 0.0338462 -0.138 -0.0276923 0.0338462 -0.138 -0.0215385 0.0338462 -0.138
          -0.0153846 0.0338462 -0.138 -0.00923077 0.0338462 -0.138 -0.00307692 0.0338462 -0.138 -0.04 0.04 -0.138
          -0.0338462 0.04 -0.138 -0.0276923 0.04 -0.138 -0.0215385 0.04 -0.138 -0.0153846 0.04 -0.138
          -0.00923077 0.04 -0.138 -0.00307692 0.04 -0.138 -0.04 -0.04 -0.132 -0.0338462 -0.04 -0.132
          -0.04 -0.0338462 -0.132 -0.0338462 -0.0338462 -0.132 -0.0276923 -0.04 -0.132 -0.0276923 -0.0338462 -0.132
          -0.0215385 -0.04 -0.132 -0.0215385 -0.0338462 -0.132 -0.0153846 -0.04 -0.132 -0.0153846 -0.0338462 -0.132
          -0.00923077 -0.04 -0.132 -0.00923077 -0.0338462 -0.132 -0.00307692 -0.04 -0.132 -0.00307692 -0.0338462 -0.132
          -0.04 -0.0276923 -0.132 -0.0338462 -0.0276923 -0.132 -0.0276923 -0.0276923 -0.132 -0.0215385 -0.0276923 -0.132
          -0.0153846 -0.0276923 -0.132 -0.00923077 -0.0276923 -0.132 -0.00307692 -0.0276923 -0.132 -0.04 -0.0215385 -0.132