<?xml version="1.0"?>
<VTKFile type="UnstructuredGrid" version="0.1" byte_order="LittleEndian">
  <UnstructuredGrid>
    <Piece NumberOfCells="1183" NumberOfPoints="1568">
      <CellData Scalars="p (Pa)">
        <DataArray type="Float32" Name="p (Pa)" NumberOfComponents="1" format="ascii">
          89491.4 89143 88712.5 88175.5 89219.6 89830.1 90099.5 88972.7 88458.1 88091.9 87825.5 89056.6
          89737.8 90032.2 87590.3 85936.6 85537.2 86613.3 88616.5 89532.9 89899 84119.3 71547.3 69916.5
          76834.6 87214.5 89170.1 89721.4 69581.9 -1.36344e+06 -1.36385e+06 74574.3 86963.4 89052.6 89642 -1.36089e+06
          -1.36665e+06 66378 76864.4 87192.9 89143.3 89706.1 -1.36473e+06 68057.7 84370.9 86842.7 88756.2 89598.5
          89942.8 -1.36043e+06 78062.5 87647.8 88930 89629.2 90035.9 90228 79018.5 87715.3 89299.6 89832.2
          90158.6 90368.5 90473.7 88568.5 89569.9 90055.8 90314.6 90484.2 90596.3 90653.6 89993.2 90251
          90450.9 90585.6 90678.4 90739.8 90771.1 90463.4 90561.5 90657.9 90732.6 90786.2 90821.5 90839.3
          90634.8 90688 90747.3 90797.2 90833.9 90857.9 90869.9 89202.8 88515.3 86624.1 78091 87188.9
          89110.1 89678.6 88653 87868.5 85663.6 77537.6 87047.3 89023.9 89607.6 87124.6 85405.3 75408.7
          75979.7 86729.4 88844.7 89474.9 83005.2 70548.2 -1.36402e+06 -1.35754e+06 78748.6 88181.5 89288.9 64023
          -1.36363e+06 -1.3647e+06 73526 86519.6 88711.5 89382.2 -1.36552e+06 -1.36396e+06 72731 85727.8 88294.5 89261.8
          89663.1 -1.3518e+06 73281.5 86133.3 88363.8 89280.9 89766.5 89995.4 75826.5 86385.4 88643.9 89451.3
          89891.5 90155.4 90285.9 87613.3 88965.5 89668.6 90045.5 90280.7 90429.5 90504.4 89573.1 89918.5
          90203.6 90396.2 90526.7 90611.3 90654.1 90239.9 90368.6 90500.5 90603 90676.3 90724.4 90748.6
          90534 90592.5 90660.2 90717.6 90760.2 90788.1 90802.1 90652.1 90687 90730 90768.4 90797.4
          90816.5 90825.9 88826.2 87351 76702.3 -1.36077e+06 77583.6 87876.9 89175.1 88095.6 86606 75406.6
          -1.34144e+06 77517.3 87745.5 89055.5 85616.2 84799.6 81414.1 72448.2 85350.5 87946.8 88873.4 70866.2
          71183.2 67899.6 72984.8 84974.7 87165.6 88553.7 -1.3665e+06 -1.36456e+06 67102.1 83806.7 86342.8 87623
          88737.2 57233 -1.32643e+06 76788.8 86865.9 88260.7 88913.1 89355.4 76695.6 77985 87057.4 88749.7
          89342.8 89682.5 89884.3 87148.8 87986 89114.1 89659.9 89959.9 90147.8 90250.8 89258.1 89554.4
          89906.8 90156 90321.4 90429.2 90485.8 90026.7 90154.1 90312.4 90442.1 90535.9 90598.1 90630.1
          90396.2 90457.3 90537 90607.4 90660.6 90696.1 90714.1 90582.3 90614.4 90657.5 90697.4 90728.2
          90748.8 90759.1 90661.2 90681.9 90710.1 90736.8 90757.6 90771.5 90778.3 88667.9 87289.1 83426.8
          69677.8 84574.9 87881.7 88871 87876 85541 70821.3 -1.3641e+06 75494 86934.5 88537.7 85733.4
          83388.9 70420.3 70976.6 83819.8 86031.1 87902.7 73081.4 69791.5 80061.9 82454.3 82831.3 76860.2
          86367 -1.36405e+06 -1.36379e+06 72669.4 83617.3 76100.2 77786.4 86704.4 74705.4 72703.6 84981 87033.4
          86806 87388.1 88610.3 86430.4 86541.4 88142 88820.4 89053 89324.5 89619.8 88835.2 89001.5
          89426 89722.9 89901 90044.3 90149 89769.6 89867.1 90043.1 90194.9 90304.6 90384.9 90433
          90228.5 90282 90369.9 90452.6 90516.9 90562.5 90587.4 90472 90501.6 90548.4 90594.1 90630.7
          90656.2 90669.6 90598.8 90615.8 90641.8 90667.8 90688.7 90703.1 90710.5 90653.1 90664.5 90681.8
          90699 90712.9 90722.4 90727.1 88505.9 86388.7 75188.3 72690.1 84942.5 87715.4 88636.8 87343.2
          77258.3 -1.35686e+06 -1.36414e+06 74410 86046.8 88047.8 85625.1 73260 -1.3648e+06 64248.5 80714.6 76412.8
          86240.4 82340.3 67857.8 63756.6 79464.8 67321 -1.36154e+06 76185.6 67446.1 -1.36414e+06 68237.9 70679.5
          -1.35363e+06 -1.35724e+06 77205 82974.7 75724.9 84631.1 85268.1 77826.2 79152.2 87301.2 87352.2 87266.3
          88165.6 88475.4 88239.4 88614.1 89321.4 89128.1 89241.5 89487.3 89663.5 89765 89907.1 90046
          89913 89972.5 90080.8 90180.1 90258 90327.1 90375.2 90294.2 90324.5 90379.4 90434.7 90481
          90517.1 90538.6 90489.2 90505.4 90534.4 90564.8 90590.5 90609.5 90620 90586.8 90596 90611.9
          90628.6 90642.8 90653 90658.4 90627.3 90633.5 90643.8 90654.6 90663.7 90670 90673.3 88667
          87631 85279.9 83754.2 84881.3 87460.4 88474.1 87756.5 85418.4 72533.9 69537.9 73757.7 85684.6
          87862.6 85450.9 74516.3 -1.36124e+06 55904.7 70070.9 83716 86965.7 81190.1 63490 -1.36593e+06 61373.3
          62052.4 74335.8 85594 61261.6 -1.36442e+06 -1.36468e+06 -1.36439e+06 -1.3629e+06 74735.9 86234.5 71101.1 74503.9
          75878.7 76480.5 77993.9 86643.2 88378.9 85908 86963.7 87495.3 87813 88230.4 89076.6 89487
          88909.6 89194.8 89413.2 89579.2 89741.2 89932.7 90055.1 89891.9 89969.4 90063.4 90149.5 90228.3
          90301.1 90346.9 90288.2 90315.1 90358.7 90403.4 90443.6 90476.9 90496.5 90470.2 90481.6 90502.7
          90525.6 90546 90561.8 90570.8 90554.7 90560.3 90571 90582.7 90593.1 90600.8 90605 90588
          90591.5 90598 90605.1 90611.2 90615.7 90618.1 88786 88233.8 87160.3 84943.2 76685.3 86636.7
          88397 87785.3 87064.5 84376.4 70758.2 -1.35849e+06 77938.6 87473.5 84425.3 83564.8 69547.9 -1.36444e+06
          -1.36082e+06 76897.5 87117.6 67208.1 69262.6 52111.6 52206.1 71609.2 85125.8 87722.3 -1.36605e+06 -1.36416e+06
          -1.36459e+06 -1.36096e+06 74655 86515 88316.1 -1.35751e+06 71656.8 76048.4 77902.6 86576.3 88502.9 89133.1
          78556 86523.2 87545.5 88094.2 88983.2 89494.4 89737 88495.7 89127.9 89421.2 89628.7 89848.4
          90022.9 90119.8 89849.7 89948.8 90050.4 90142.1 90229.1 90300.6 90341.7 90263.1 90289.2 90330.3
          90372.9 90412.5 90444.2 90462.3 90435.9 90445.1 90462.9 90482.9 90501.2 90515.5 90523.5 90511.8
          90515.7 90523.8 90533.2 90541.7 90548.2 90551.7 90540.5 90542.7 90547.2 90552.4 90557.1 90560.5
          90562.4 88849.7 88473.6 87848.7 86733.9 86554.2 88255.8 88972 87457.2 87258.9 85564.2 76543.5
          77580.5 87040.6 88651.5 76558.6 83205.6 70829.2 -1.36283e+06 73949.4 86629.7 88524 -1.31887e+06 63105
          -1.36671e+06 -1.3623e+06 77270.7 87420.8 88757 -1.36488e+06 -1.36377e+06 67492.1 74314.9 86188.6 88478.5 89150.2
          72990.9 75755.1 85060.9 86731.6 88469.8 89253.3 89580.3 86746 87355.4 88399 88949.8 89450.8
          89775.4 89934.4 89148.7 89306.3 89558 89771.6 89965.1 90108.2 90184.1 89926.7 89972.7 90062.1
          90154.7 90239.8 90305.2 90340.9 90251 90266.9 90303.5 90345.3 90384 90413.9 90430.3 90398.2
          90404.5 90420.1 90438.8 90456.1 90469.4 90476.6 90463.9 90466.6 90473.4 90481.6 90489.3 90495.1
          90498.2 90488.6 90490 90493.6 90497.9 90501.8 90504.7 90506.3 88993.9 88585.1 88376.7 88318.8
          88623.2 89180.5 89489.9 88111.1 87020.4 86678 86591.6 87642.9 88887 89368.7 85062 75625
          74818 76970.1 86670.3 88697 89300.3 70216.8 -1.3648e+06 -1.36371e+06 74298.3 86803.9 88828.7 89383.7
          71240.1 -1.36371e+06 72662.7 85574 88260.8 89227.9 89591 85044 76995.6 86196.8 88201.6 89134.9
          89622.1 89837 88209.5 87754.6 88710.1 89291.9 89688.1 89936.6 90056.5 89418.5 89410.2 89632.1
          89853 90033.4 90158.2 90221.7 89962.8 89976.2 90057.6 90153 90237.4 90298.6 90330.5 90226
          90234.2 90268.7 90311.4 90350.5 90379.3 90394.4 90353.3 90357.4 90372.3 90391.1 90408.5 90421.3
          90428.1 90411.5 90413.4 90419.8 90427.9 90435.4 90440.9 90443.7 90433.5 90434.6 90437.8 90441.8
          90445.5 90448.2 90449.6 89019.3 88543.7 88704.5 89010.2 89346 89647.7 89813.4 88194.1 86686.6
          87646.1 88408.6 89057.2 89528.4 89753.5 85958.9 75705.5 84483.2 86992.9 88675.1 89408.2 89701.7
          83177.8 64304.2 73779.3 85989.9 88546.6 89405.2 89718.8 75515.4 -1.36324e+06 75989.8 86978.7 88874
          89557.2 89817.8 85569 77206.1 86488.2 88532.8 89374.2 89788.4 89964.9 88272.9 87754.5 88748.6
          89379.7 89773.2 90003.9 90110.5 89386.1 89364.1 89607.9 89855.1 90044 90166.5 90226.1 89907.6
          89919.1 90011.9 90120.4 90211.4 90273.6 90304.6 90167 90175.4 90215.3 90264 90306.6 90336.5
          90351.5 90294.5 90298.8 90316 90337.3 90356.2 90369.6 90376.3 90353 90355 90362.3 90371.3
          90379.4 90385 90387.9 90375.1 90376.2 90379.7 90384.2 90388.1 90390.8 90392.2 88929.5 88093.8
          88788.9 89302.1 89645.7 89870.3 89982.5 87474.7 79273.6 87269 88842.2 89465.1 89793 89941.2
          78344 -1.352e+06 77865.5 87698.9 89165.8 89686.8 89890.7 74863.6 -1.36488e+06 74316 86835.6 88943.5
          89625.3 89871.3 70802.4 -1.36427e+06 73214 86623.9 88945.5 89663.3 89909.2 76559.1 75922.5 85853.1
          88374.7 89380.4 89827.8 90004.5 86892.9 87249.3 88505.1 89293 89752.8 90002.9 90112.2 88975.8
          89114.1 89469 89784.1 90005.6 90139.7 90201.8 89725 89777 89914.9 90054.7 90162.3 90231.1
          90264 90061.5 90081.5 90138.9 90201.5 90252.1 90285.4 90301.5 90218 90225.9 90249.6 90276.7
          90299.2 90314.1 90321.4 90287.6 90290.8 90300.4 90311.7 90321.2 90327.6 90330.7 90313.5 90315
          90319.6 90325 90329.6 90332.7 90334.1 89185.3 88834.6 89135.2 89506.5 89785.9 89964.2 90050.2
          88474.3 87205.1 88422.2 89198.3 89649 89901.4 90015.2 86173.5 75591.5 86134.9 88495.7 89393
          89798.7 89963 74294 -1.36357e+06 74432 86932.3 89039.4 89695.7 89921.7 -1.36357e+06 -1.36389e+06 -1.35983e+06
          79345.5 88549 89649.2 89922.9 -1.36324e+06 70088.3 77977.1 87505.6 89243.2 89799 89992.2 76008.9
          85622.7 87714.5 89069.4 89674.4 89963.3 90081.6 87514.7 88533.9 89207 89663.6 89938.6 90091.4
          90158.9 89341.6 89533.5 89773.1 89966.7 90098.8 90177.4 90213.4 89906 89955.3 90045.1 90128.9
          90190.6 90228.8 90246.5 90127 90142.2 90176.6 90211.8 90239 90256.2 90264.2 90217.6 90222.8
          90236 90250.4 90261.8 90269.1 90272.5 90249.9 90252.2 90258.2 90265 90270.5 90274 90275.6
          89344 89159.2 89323.5 89595.2 89824.8 89975.9 90048.9 88912.4 88508.6 88898 89367.3 89711.3
          89920.2 90016.7 87827.1 86341.6 87847.6 88886.8 89498.5 89825 89965.2 85046.4 75243.3 85310.4
          88078.2 89221.7 89724 89918.2 71549.8 62535.6 75723.2 86867.9 89003.7 89679.3 89908 -1.36457e+06
          71627.3 85192.9 88192.4 89309.4 89780.5 89959.8 -1.3626e+06 77394.8 87436.2 89026.6 89632.3 89918.9
          90036.7 79350.5 87349.7 88959.7 89567.6 89875.6 90037.1 90106.9 88588.1 89222.6 89633.2 89883.3
          90034.6 90119.8 90157.7 89726.3 89825.4 89954.3 90058 90128.5 90170.1 90189 90036.8 90060.8
          90105.6 90147.7 90178.6 90197.3 90205.9 90149.1 90156.3 90172.6 90189.4 90202.3 90210.2 90213.8
          90187.3 90190.2 90197.4 90205.2 90211.3 90215.1 90216.8
        </DataArray>
        <DataArray type="Float32" Name="saturation" NumberOfComponents="1" format="ascii">
          0.108118 0.1079 0.107657 0.10739 0.107946 0.108353 0.108557 0.1078 0.107526 0.107351 0.107235 0.107848
          0.108287 0.108505 0.107138 0.106587 0.106482 0.106788 0.107606 0.108146 0.108404 0.10617 0.105124 0.105074
          0.105365 0.106994 0.107916 0.108275 0.105065 0.100913 0.100912 0.105244 0.106904 0.107846 0.10822 0.10092
          0.100904 0.10499 0.105367 0.106986 0.1079 0.108265 0.100909 0.105026 0.106219 0.106863 0.10768 0.10819
          0.108437 0.100921 0.105447 0.107161 0.107776 0.108211 0.108508 0.108661 0.105521 0.107189 0.107995 0.108355
          0.108604 0.108778 0.10887 0.107581 0.108171 0.108523 0.108733 0.108879 0.108981 0.109034 0.108475 0.10868
          0.10885 0.108971 0.109057 0.109116 0.109146 0.108861 0.108949 0.109038 0.109109 0.109161 0.109196 0.109213
          0.109017 0.109066 0.109123 0.109172 0.109208 0.109232 0.109244 0.107936 0.107554 0.106791 0.105449 0.106984
          0.10788 0.108245 0.107625 0.107253 0.106514 0.10541 0.106934 0.107829 0.108196 0.106961 0.106449 0.105284
          0.105315 0.106826 0.107728 0.108108 0.105977 0.105093 0.100911 0.100929 0.105499 0.107393 0.107989 0.104947
          0.100912 0.100909 0.105198 0.106758 0.107656 0.108048 0.100907 0.100911 0.105166 0.106531 0.107446 0.107972
          0.108235 0.100945 0.105188 0.106643 0.107479 0.107984 0.108307 0.108477 0.105306 0.106717 0.10762 0.108092
          0.108398 0.108602 0.108709 0.107147 0.107796 0.108238 0.108515 0.108704 0.108831 0.108897 0.108173 0.108418
          0.108641 0.108802 0.108917 0.108995 0.109035 0.10867 0.108779 0.108894 0.108987 0.109055 0.109101 0.109124
          0.108924 0.108977 0.10904 0.109095 0.109136 0.109163 0.109177 0.109033 0.109065 0.109107 0.109144 0.109172
          0.109191 0.1092 0.107718 0.107044 0.105357 0.10092 0.105413 0.107257 0.107919 0.107353 0.106786 0.105284
          0.100973 0.105409 0.107201 0.107848 0.106502 0.106309 0.10576 0.105156 0.106435 0.107287 0.107744 0.105102
          0.105112 0.105023 0.105176 0.106347 0.106976 0.107574 0.100904 0.10091 0.105005 0.106112 0.106704 0.107151
          0.10767 0.104861 0.101014 0.105362 0.106871 0.10743 0.107766 0.10803 0.105356 0.105441 0.106937 0.107676
          0.108022 0.108248 0.108393 0.10697 0.107304 0.107882 0.108232 0.10845 0.108596 0.108679 0.107969 0.10816
          0.10841 0.108602 0.108738 0.108831 0.108881 0.108501 0.108601 0.108731 0.108842 0.108926 0.108982 0.109012
          0.108802 0.108856 0.108927 0.108991 0.109041 0.109074 0.109091 0.108968 0.108998 0.109038 0.109075 0.109105
          0.109125 0.109135 0.109041 0.109061 0.109088 0.109113 0.109133 0.109147 0.109153 0.107633 0.107021 0.106045
          0.105068 0.106261 0.107259 0.107743 0.107256 0.106483 0.105101 0.100911 0.105289 0.106894 0.107566 0.106533
          0.106039 0.105089 0.105106 0.106114 0.106614 0.107268 0.10518 0.105071 0.105614 0.105895 0.10595 0.105366
          0.106711 0.100911 0.100912 0.105164 0.106078 0.105322 0.105427 0.106817 0.10525 0.105165 0.106349 0.106929
          0.106851 0.107059 0.107603 0.106731 0.106765 0.107374 0.107715 0.107846 0.108011 0.108205 0.107723 0.107816
          0.108076 0.108276 0.108405 0.108514 0.108597 0.10831 0.10838 0.108513 0.108634 0.108724 0.108793 0.108834
          0.108661 0.108705 0.10878 0.108852 0.108909 0.10895 0.108973 0.108869 0.108895 0.108937 0.108979 0.109013
          0.109036 0.109049 0.108983 0.108999 0.109023 0.109047 0.109067 0.109081 0.109088 0.109034 0.109044 0.109061
          0.109077 0.10909 0.109099 0.109104 0.107549 0.106718 0.105273 0.105165 0.10634 0.107189 0.107617 0.107042
          0.105392 0.100931 0.100911 0.105236 0.106618 0.107332 0.106504 0.105187 0.100909 0.104951 0.105681 0.105339
          0.106674 0.105879 0.105022 0.104943 0.105559 0.10501 0.100918 0.105326 0.105013 0.100911 0.105031 0.105097
          0.10094 0.10093 0.105388 0.105972 0.105301 0.106272 0.106416 0.10543 0.105532 0.107026 0.107045 0.107013
          0.107385 0.107534 0.10742 0.107605 0.108009 0.107891 0.107959 0.108116 0.108235 0.108306 0.10841 0.108515
          0.108414 0.108459 0.108543 0.108622 0.108685 0.108743 0.108784 0.108716 0.108741 0.108788 0.108836 0.108877
          0.108909 0.108928 0.108884 0.108898 0.108924 0.108952 0.108975 0.108993 0.109003 0.108972 0.108981 0.108995
          0.109011 0.109024 0.109033 0.109039 0.109009 0.109015 0.109025 0.109035 0.109044 0.109049 0.109053 0.107632
          0.107154 0.106418 0.106102 0.106326 0.107086 0.107533 0.107206 0.106452 0.105159 0.105064 0.105207 0.10652
          0.10725 0.10646 0.105241 0.100919 0.104848 0.105079 0.106095 0.106905 0.105734 0.104938 0.100906 0.104908
          0.104917 0.105233 0.106496 0.104906 0.10091 0.100909 0.10091 0.100914 0.105251 0.106672 0.10511 0.10524
          0.105309 0.105343 0.105442 0.106798 0.107486 0.106579 0.106904 0.1071 0.107229 0.107415 0.10786 0.108116
          0.107764 0.107931 0.108067 0.108177 0.108289 0.108429 0.108523 0.108399 0.108457 0.108529 0.108597 0.108661
          0.108721 0.10876 0.108711 0.108733 0.10877 0.108809 0.108844 0.108873 0.10889 0.108867 0.108877 0.108896
          0.108916 0.108935 0.108949 0.108957 0.108943 0.108948 0.108958 0.108968 0.108978 0.108985 0.108989 0.108973
          0.108976 0.108982 0.108989 0.108995 0.108999 0.109001 0.107696 0.107417 0.106974 0.10634 0.105356 0.106795
          0.107495 0.107218 0.10694 0.10622 0.105099 0.100926 0.105438 0.107091 0.10623 0.106069 0.105064 0.10091
          0.10092 0.105369 0.106959 0.105007 0.105056 0.104818 0.104819 0.105126 0.106382 0.107191 0.100906 0.100911
          0.10091 0.10092 0.105247 0.106757 0.107456 0.100929 0.105128 0.105319 0.105435 0.106776 0.107548 0.107894
          0.105484 0.10676 0.10712 0.107353 0.107806 0.10812 0.108286 0.107544 0.107891 0.108073 0.108211 0.108367
          0.108498 0.108573 0.108367 0.108441 0.108519 0.108591 0.108662 0.108721 0.108756 0.10869 0.108711 0.108746
          0.108782 0.108816 0.108844 0.10886 0.108837 0.108845 0.108861 0.108878 0.108895 0.108907 0.108915 0.108904
          0.108908 0.108915 0.108923 0.108931 0.108937 0.10894 0.10893 0.108932 0.108936 0.108941 0.108945 0.108948
          0.10895 0.107731 0.107533 0.107244 0.106827 0.106769 0.107427 0.1078 0.107085 0.10701 0.106489 0.105347
          0.105413 0.106931 0.107624 0.105348 0.106009 0.105101 0.100914 0.105215 0.106793 0.107559 0.101035 0.104932
          0.100904 0.100916 0.105392 0.107071 0.10768 0.100909 0.100912 0.105014 0.105232 0.106659 0.107536 0.107904
          0.105176 0.105303 0.106367 0.106826 0.107531 0.107967 0.108178 0.106831 0.107046 0.107496 0.107787 0.108092
          0.108314 0.10843 0.107903 0.107999 0.108163 0.108311 0.108453 0.108564 0.108625 0.108424 0.108459 0.108528
          0.108601 0.10867 0.108725 0.108755 0.10868 0.108693 0.108723 0.108759 0.108792 0.108818 0.108832 0.108804
          0.108809 0.108823 0.108839 0.108855 0.108866 0.108873 0.108861 0.108864 0.10887 0.108877 0.108884 0.108889
          0.108892 0.108883 0.108885 0.108888 0.108892 0.108895 0.108898 0.108899 0.107812 0.10759 0.107485 0.107457
          0.10761 0.107922 0.108117 0.10736 0.106924 0.106809 0.106781 0.107159 0.107752 0.108039 0.106367 0.105296
          0.105255 0.105373 0.106806 0.107648 0.107996 0.105083 0.100909 0.100912 0.105231 0.10685 0.107719 0.108048
          0.105114 0.100912 0.105164 0.106491 0.10743 0.107951 0.108185 0.106363 0.105375 0.106661 0.107402 0.107895
          0.108206 0.108358 0.107406 0.107205 0.107655 0.10799 0.108252 0.108432 0.108524 0.108071 0.108065 0.108213
          0.10837 0.108506 0.108604 0.108656 0.108452 0.108462 0.108524 0.1086 0.108668 0.108719 0.108746 0.108659
          0.108666 0.108694 0.10873 0.108763 0.108788 0.108801 0.108766 0.108769 0.108782 0.108798 0.108813 0.108824
          0.10883 0.108816 0.108817 0.108823 0.10883 0.108836 0.108841 0.108844 0.108835 0.108836 0.108839 0.108842
          0.108845 0.108848 0.108849 0.107827 0.107569 0.107652 0.107822 0.108024 0.108224 0.108341 0.107398 0.106812
          0.10716 0.107501 0.107849 0.108143 0.108298 0.106593 0.1053 0.106242 0.106915 0.107637 0.108064 0.108261
          0.106004 0.104952 0.105208 0.106602 0.10757 0.108062 0.108273 0.10529 0.100913 0.105315 0.10691 0.107744
          0.108162 0.108344 0.10649 0.105388 0.106749 0.107563 0.108042 0.108323 0.108453 0.107435 0.107205 0.107676
          0.108046 0.108312 0.108483 0.108566 0.10805 0.108036 0.108197 0.108371 0.108514 0.108611 0.108659 0.10841
          0.108419 0.108489 0.108574 0.108647 0.108698 0.108724 0.108611 0.108618 0.10865 0.10869 0.108726 0.108751
          0.108764 0.108716 0.108719 0.108734 0.108752 0.108768 0.108779 0.108785 0.108765 0.108767 0.108773 0.108781
          0.108788 0.108793 0.108795 0.108784 0.108785 0.108788 0.108792 0.108795 0.108798 0.108799 0.107775 0.107352
          0.107698 0.107997 0.108223 0.108383 0.108467 0.107092 0.105543 0.107014 0.107727 0.108101 0.108326 0.108435
          0.105468 0.100944 0.105433 0.107182 0.107913 0.108251 0.108398 0.105257 0.100909 0.105232 0.106861 0.107783
          0.108208 0.108383 0.1051 0.10091 0.105185 0.106791 0.107784 0.108235 0.108411 0.105348 0.105312 0.106565
          0.107484 0.108046 0.108352 0.108483 0.10688 0.107006 0.107549 0.107991 0.108298 0.108482 0.108567 0.107802
          0.107882 0.108104 0.10832 0.108484 0.108589 0.108639 0.108278 0.108315 0.108416 0.108522 0.108607 0.108663
          0.10869 0.108528 0.108543 0.108589 0.108639 0.108681 0.108708 0.108722 0.108653 0.108659 0.108678 0.108701
          0.10872 0.108732 0.108738 0.10871 0.108713 0.108721 0.10873 0.108738 0.108744 0.108746 0.108732 0.108733
          0.108737 0.108741 0.108745 0.108748 0.108749 0.107925 0.107723 0.107895 0.108128 0.108321 0.108453 0.108519
          0.107534 0.10699 0.107508 0.107933 0.108225 0.108406 0.108492 0.106654 0.105294 0.106643 0.107544 0.108054
          0.10833 0.108452 0.105231 0.100912 0.105237 0.106894 0.107838 0.108257 0.108421 0.100912 0.100912 0.100923
          0.105549 0.107571 0.108225 0.108422 0.100913 0.105079 0.105441 0.107104 0.10796 0.108331 0.108474 0.105317
          0.106504 0.107188 0.107856 0.108242 0.108452 0.108543 0.107108 0.107564 0.107938 0.108235 0.108433 0.108551
          0.108605 0.108022 0.108146 0.108312 0.108455 0.108557 0.10862 0.108649 0.108409 0.108446 0.108515 0.108581
          0.10863 0.108661 0.108676 0.108579 0.108591 0.108619 0.108647 0.10867 0.108684 0.108691 0.108652 0.108656
          0.108667 0.108679 0.108689 0.108695 0.108697 0.108679 0.108681 0.108686 0.108691 0.108696 0.108699 0.1087
          0.108023 0.107909 0.10801 0.108188 0.108349 0.108462 0.108518 0.107766 0.107551 0.107758 0.108038 0.108268
          0.10842 0.108493 0.107235 0.106704 0.107244 0.107751 0.108123 0.108349 0.108453 0.106364 0.105276 0.106426
          0.107345 0.107947 0.108277 0.108418 0.105124 0.104924 0.105301 0.106872 0.107818 0.108246 0.108411 0.10091
          0.105127 0.106398 0.107398 0.108001 0.108317 0.108449 0.100915 0.105401 0.107077 0.107831 0.108213 0.108419
          0.108508 0.105549 0.107044 0.107793 0.108169 0.108386 0.108509 0.108563 0.107591 0.107948 0.108214 0.108392
          0.108507 0.108573 0.108604 0.108279 0.10835 0.108445 0.108525 0.10858 0.108614 0.108629 0.108508 0.108527
          0.108562 0.108596 0.10862 0.108636 0.108643 0.108597 0.108603 0.108616 0.108629 0.10864 0.108646 0.108649
          0.108628 0.10863 0.108636 0.108642 0.108647 0.10865 0.108652
        </DataArray>
        <DataArray type="Float32" Name="process rank" NumberOfComponents="1" format="ascii">
          3 3 3 3 3 3 3 3 3 3 3 3
          3 3 3 3 3 3 3 3 3 3 3 3
          3 3 3 3 3 3 3 3 3 3 3 3
          3 3 3 3 3 3 3 3 3 3 3 3
          3 3 3 3 3 3 3 3 3 3 3 3
          3 3 3 3 3 3 3 3 3 3 3 3
          3 3 3 3 3 3 3 3 3 3 3 3
          3 3 3 3 3 3 3 3 3 3 3 3
          3 3 3 3 3 3 3 3 3 3 3 3
          3 3 3 3 3 3 3 3 3 3 3 3
          3 3 3 3 3 3 3 3 3 3 3 3
          3 3 3 3 3 3 3 3 3 3 3 3
          3 3 3 3 3 3 3 3 3 3 3 3
          3 3 3 3 3 3 3 3 3 3 3 3
          3 3 3 3 3 3 3 3 3 3 3 3
          3 3 3 3 3 3 3 3 3 3 3 3
          3 3 3 3 3 3 3 3 3 3 3 3
          3 3 3 3 3 3 3 3 3 3 3 3
          3 3 3 3 3 3 3 3 3 3 3 3
          3 3 3 3 3 3 3 3 3 3 3 3
          3 3 3 3 3 3 3 3 3 3 3 3
          3 3 3 3 3 3 3 3 3 3 3 3
          3 3 3 3 3 3 3 3 3 3 3 3
          3 3 3 3 3 3 3 3 3 3 3 3
          3 3 3 3 3 3 3 3 3 3 3 3
          3 3 3 3 3 3 3 3 3 3 3 3
          3 3 3 3 3 3 3 3 3 3 3 3
          3 3 3 3 3 3 3 3 3 3 3 3
          3 3 3 3 3 3 3 3 3 3 3 3
          3 3 3 3 3 3 3 3 3 3 3 3
          3 3 3 3 3 3 3 3 3 3 3 3
          3 3 3 3 3 3 3 3 3 3 3 3
          3 3 3 3 3 3 3 3 3 3 3 3
          3 3 3 3 3 3 3 3 3 3 3 3
          3 3 3 3 3 3 3 3 3 3 3 3
          3 3 3 3 3 3 3 3 3 3 3 3
          3 3 3 3 3 3 3 3 3 3 3 3
          3 3 3 3 3 3 3 3 3 3 3 3
          3 3 3 3 3 3 3 3 3 3 3 3
          3 3 3 3 3 3 3 3 3 3 3 3
          3 3 3 3 3 3 3 3 3 3 3 3
          3 3 3 3 3 3 3 3 3 3 3 3
          3 3 3 3 3 3 3 3 3 3 3 3
          3 3 3 3 3 3 3 3 3 3 3 3
          3 3 3 3 3 3 3 3 3 3 3 3
          3 3 3 3 3 3 3 3 3 3 3 3
          3 3 3 3 3 3 3 3 3 3 3 3
          3 3 3 3 3 3 3 3 3 3 3 3
          3 3 3 3 3 3 3 3 3 3 3 3
          3 3 3 3 3 3 3 3 3 3 3 3
          3 3 3 3 3 3 3 3 3 3 3 3
          3 3 3 3 3 3 3 3 3 3 3 3
          3 3 3 3 3 3 3 3 3 3 3 3
          3 3 3 3 3 3 3 3 3 3 3 3
          3 3 3 3 3 3 3 3 3 3 3 3
          3 3 3 3 3 3 3 3 3 3 3 3
          3 3 3 3 3 3 3 3 3 3 3 3
          3 3 3 3 3 3 3 3 3 3 3 3
          3 3 3 3 3 3 3 3 3 3 3 3
          3 3 3 3 3 3 3 3 3 3 3 3
          3 3 3 3 3 3 3 3 3 3 3 3
          3 3 3 3 3 3 3 3 3 3 3 3
          3 3 3 3 3 3 3 3 3 3 3 3
          3 3 3 3 3 3 3 3 3 3 3 3
          3 3 3 3 3 3 3 3 3 3 3 3
          3 3 3 3 3 3 3 3 3 3 3 3
          3 3 3 3 3 3 3 3 3 3 3 3
          3 3 3 3 3 3 3 3 3 3 3 3
          3 3 3 3 3 3 3 3 3 3 3 3
          3 3 3 3 3 3 3 3 3 3 3 3
          3 3 3 3 3 3 3 3 3 3 3 3
          3 3 3 3 3 3 3 3 3 3 3 3
          3 3 3 3 3 3 3 3 3 3 3 3
          3 3 3 3 3 3 3 3 3 3 3 3
          3 3 3 3 3 3 3 3 3 3 3 3
          3 3 3 3 3 3 3 3 3 3 3 3
          3 3 3 3 3 3 3 3 3 3 3 3
          3 3 3 3 3 3 3 3 3 3 3 3
          3 3 3 3 3 3 3 3 3 3 3 3
          3 3 3 3 3 3 3 3 3 3 3 3
          3 3 3 3 3 3 3 3 3 3 3 3
          3 3 3 3 3 3 3 3 3 3 3 3
          3 3 3 3 3 3 3 3 3 3 3 3
          3 3 3 3 3 3 3 3 3 3 3 3
          3 3 3 3 3 3 3 3 3 3 3 3
          3 3 3 3 3 3 3 3 3 3 3 3
          3 3 3 3 3 3 3 3 3 3 3 3
          3 3 3 3 3 3 3 3 3 3 3 3
          3 3 3 3 3 3 3 3 3 3 3 3
          3 3 3 3 3 3 3 3 3 3 3 3
          3 3 3 3 3 3 3 3 3 3 3 3
          3 3 3 3 3 3 3 3 3 3 3 3
          3 3 3 3 3 3 3 3 3 3 3 3
          3 3 3 3 3 3 3 3 3 3 3 3
          3 3 3 3 3 3 3 3 3 3 3 3
          3 3 3 3 3 3 3 3 3 3 3 3
          3 3 3 3 3 3 3 3 3 3 3 3
          3 3 3 3 3 3 3 3 3 3 3 3
          3 3 3 3 3 3 3
        </DataArray>
      </CellData>
      <Points>
        <DataArray type="Float32" Name="Coordinates" NumberOfComponents="3" format="ascii">
          -0.00307692 -0.04 -0.078 0.00307692 -0.04 -0.078 -0.00307692 -0.0338462 -0.078 0.00307692 -0.0338462 -0.078
          -0.00307692 -0.04 -0.072 0.00307692 -0.04 -0.072 -0.00307692 -0.0338462 -0.072 0.00307692 -0.0338462 -0.072
          0.00923077 -0.04 -0.078 0.00923077 -0.0338462 -0.078 0.00923077 -0.04 -0.072 0.00923077 -0.0338462 -0.072
          0.0153846 -0.04 -0.078 0.0153846 -0.0338462 -0.078 0.0153846 -0.04 -0.072 0.0153846 -0.0338462 -0.072
          0.0215385 -0.04 -0.078 0.0215385 -0.0338462 -0.078 0.0215385 -0.04 -0.072 0.0215385 -0.0338462 -0.072
          0.0276923 -0.04 -0.078 0.0276923 -0.0338462 -0.078 0.0276923 -0.04 -0.072 0.0276923 -0.0338462 -0.072
          0.0338462 -0.04 -0.078 0.0338462 -0.0338462 -0.078 0.0338462 -0.04 -0.072 0.0338462 -0.0338462 -0.072
          0.04 -0.04 -0.078 0.04 -0.0338462 -0.078 0.04 -0.04 -0.072 0.04 -0.0338462 -0.072
          -0.00307692 -0.0276923 -0.078 0.00307692 -0.0276923 -0.078 -0.00307692 -0.0276923 -0.072 0.00307692 -0.0276923 -0.072
          0.00923077 -0.0276923 -0.078 0.00923077 -0.0276923 -0.072 0.0153846 -0.0276923 -0.078 0.0153846 -0.0276923 -0.072
          0.0215385 -0.0276923 -0.078 0.0215385 -0.0276923 -0.072 0.0276923 -0.0276923 -0.078 0.0276923 -0.0276923 -0.072
          0.0338462 -0.0276923 -0.078 0.0338462 -0.0276923 -0.072 0.04 -0.0276923 -0.078 0.04 -0.0276923 -0.072
          -0.00307692 -0.0215385 -0.078 0.00307692 -0.0215385 -0.078 -0.00307692 -0.0215385 -0.072 0.00307692 -0.0215385 -0.072
          0.00923077 -0.0215385 -0.078 0.00923077 -0.0215385 -0.072 0.0153846 -0.0215385 -0.078 0.0153846 -0.0215385 -0.072
          0.0215385 -0.0215385 -0.078 0.0215385 -0.0215385 -0.072 0.0276923 -0.0215385 -0.078 0.0276923 -0.0215385 -0.072
          0.0338462 -0.0215385 -0.078 0.0338462 -0.0215385 -0.072 0.04 -0.0215385 -0.078 0.04 -0.0215385 -0.072
          -0.00307692 -0.0153846 -0.078 0.00307692 -0.0153846 -0.078 -0.00307692 -0.0153846 -0.072 0.00307692 -0.0153846 -0.072
          0.00923077 -0.0153846 -0.078 0.00923077 -0.0153846 -0.072 0.0153846 -0.0153846 -0.078 0.0153846 -0.0153846 -0.072
          0.0215385 -0.0153846 -0.078 0.0215385 -0.0153846 -0.072 0.0276923 -0.0153846 -0.078 0.0276923 -0.0153846 -0.072
          0.0338462 -0.0153846 -0.078 0.0338462 -0.0153846 -0.072 0.04 -0.0153846 -0.078 0.04 -0.0153846 -0.072
          -0.00307692 -0.00923077 -0.078 0.00307692 -0.00923077 -0.078 -0.00307692 -0.00923077 -0.072 0.00307692 -0.00923077 -0.072
          0.00923077 -0.00923077 -0.078 0.00923077 -0.00923077 -0.072 0.0153846 -0.00923077 -0.078 0.0153846 -0.00923077 -0.072
          0.0215385 -0.00923077 -0.078 0.0215385 -0.00923077 -0.072 0.0276923 -0.00923077 -0.078 0.0276923 -0.00923077 -0.072
          0.0338462 -0.00923077 -0.078 0.0338462 -0.00923077 -0.072 0.04 -0.00923077 -0.078 0.04 -0.00923077 -0.072
          -0.00307692 -0.00307692 -0.078 0.00307692 -0.00307692 -0.078 -0.00307692 -0.00307692 -0.072 0.00307692 -0.00307692 -0.072
          0.00923077 -0.00307692 -0.078 0.00923077 -0.00307692 -0.072 0.0153846 -0.00307692 -0.078 0.0153846 -0.00307692 -0.072
          0.0215385 -0.00307692 -0.078 0.0215385 -0.00307692 -0.072 0.0276923 -0.00307692 -0.078 0.0276923 -0.00307692 -0.072
          0.0338462 -0.00307692 -0.078 0.0338462 -0.00307692 -0.072 0.04 -0.00307692 -0.078 0.04 -0.00307692 -0.072
          -0.00307692 0.00307692 -0.078 0.00307692 0.00307692 -0.078 -0.00307692 0.00307692 -0.072 0.00307692 0.00307692 -0.072
          0.00923077 0.00307692 -0.078 0.00923077 0.00307692 -0.072 0.0153846 0.00307692 -0.078 0.0153846 0.00307692 -0.072
          0.0215385 0.00307692 -0.078 0.0215385 0.00307692 -0.072 0.0276923 0.00307692 -0.078 0.0276923 0.00307692 -0.072
          0.0338462 0.00307692 -0.078 0.0338462 0.00307692 -0.072 0.04 0.00307692 -0.078 0.04 0.00307692 -0.072
          -0.00307692 0.00923077 -0.078 0.00307692 0.00923077 -0.078 -0.00307692 0.00923077 -0.072 0.00307692 0.00923077 -0.072