% Model:              rhizosphere_equilibrium.mph
% Version:            COMSOL 5.4.0.388
% Date:               Jan 27 2020, 10:14
% Dimension:          1
% Nodes:              1981
% Expressions:        15
% Description:        Abhängige Variable c
% R                       c (g/cm^3) @ t=0         c (g/cm^3) @ t=86400     c (g/cm^3) @ t=1.728E5   c (g/cm^3) @ t=2.592E5   c (g/cm^3) @ t=3.456E5   c (g/cm^3) @ t=4.32E5    c (g/cm^3) @ t=5.184E5   c (g/cm^3) @ t=6.048E5   c (g/cm^3) @ t=6.912E5   c (g/cm^3) @ t=7.776E5   c (g/cm^3) @ t=8.64E5    c (g/cm^3) @ t=9.504E5   c (g/cm^3) @ t=1.0368E6  c (g/cm^3) @ t=1.1232E6  c (g/cm^3) @ t=1.2096E6
0.02                      4.330253665824668E-4     3.990811535980937E-6     3.2795989554863913E-6    2.9487141587289952E-6    2.745120237995425E-6     2.6020965671735287E-6    2.4945171554803876E-6    2.4090527464610505E-6    2.338573641717876E-6     2.2794109769789034E-6    2.228724064354059E-6     2.1845351280472318E-6    2.145458678768854E-6     2.110526775510956E-6     2.0790109238599445E-6
0.020999999999999998      9.489839723481186E-4     4.725635876968276E-5     3.883713730144093E-5     3.491951174477874E-5     3.250882640751964E-5     3.081527257557197E-5     2.9541384897882467E-5    2.8529354422214773E-5    2.769476448522499E-5     2.6994172605157624E-5    2.639394418632912E-5     2.5870661163593453E-5    2.5407917891781695E-5    2.499425272075166E-5     2.4621039341952534E-5
0.021999999999999995      9.957681794965792E-4     8.848846511487482E-5     7.273456912742952E-5     6.540077479999873E-5     6.088719199485184E-5     5.771603177167188E-5     5.533054353050192E-5     5.34353438589647E-5      5.187239396346281E-5     5.0560350516901146E-5    4.943624345121089E-5     4.8456227597618295E-5    4.758958305824376E-5     4.6814846960873766E-5    4.6115866409235746E-5
0.022999999999999993      9.99702451155169E-4      1.278451225140861E-4     1.0511088850955863E-4    9.452005767351508E-5     8.800009722758098E-5     8.341863551555329E-5     7.997190730640389E-5     7.723342759970017E-5     7.497494505126007E-5     7.307894594636889E-5     7.145447998738759E-5     7.003821438241472E-5     6.878576603525448E-5     6.766612444534286E-5     6.665595255015971E-5
0.023999999999999987      9.999877229515124E-4     1.6546335124193186E-4    1.3608702382127618E-4    1.2238844614112168E-4    1.139519935732343E-4     1.0802266684258675E-4    1.0356128714050566E-4    1.0001637025559064E-4    9.709264192180802E-5     9.463802532615451E-5     9.253485614040596E-5     9.07011897528788E-5      8.907958339996078E-5     8.762989881221642E-5     8.632193221131003E-5
0.024999999999999988      0.001000001140797766     2.014627229569351E-4     1.6576881381293883E-4    1.491032591005115E-4     1.388344308374864E-4     1.316154326568192E-4     1.2618269763864083E-4    1.218655253489103E-4     1.1830461762685145E-4    1.1531483466205363E-4    1.1275298699513363E-4    1.1051933866147789E-4    1.0854394935548402E-4    1.0677794347091616E-4    1.0518454618721566E-4
0.02599999999999999       0.0010000004288940633    2.3594819546090228E-4    1.9424939937330005E-4    1.7475021988315283E-4    1.627280882201637E-4     1.5427389444743977E-4    1.4791021136305289E-4    1.428526283698103E-4     1.3868065640533524E-4    1.3517749901216522E-4    1.32175563012061E-4      1.2955809320303594E-4    1.272431776060822E-4     1.2517356790514106E-4    1.2330619481441392E-4
0.026999999999999986      0.001000000084116858     2.6901241190855854E-4    2.2161116343410273E-4    1.9940521739731835E-4    1.857044217500147E-4     1.7606623437498608E-4    1.6880946293506598E-4    1.630412512501879E-4     1.582826070080154E-4     1.542864010819409E-4     1.508616987461952E-4     1.478754552120287E-4     1.4523428080179016E-4    1.428728963789464E-4     1.4074219793633154E-4
0.027999999999999983      0.0010000000137477452    3.007375773319662E-4     2.479273177135973E-4     2.2313574668401378E-4    2.0782701187491192E-4    1.9705313635137538E-4    1.8893887943575364E-4    1.8248799218417285E-4    1.7716553886961745E-4    1.7269530899648584E-4    1.6886403618745043E-4    1.6552307824066345E-4    1.6256803358166038E-4    1.5992591401907416E-4    1.575418256579106E-4
0.02899999999999998       0.0010000000020588878    3.311970082802687E-4     2.732632106954679E-4     2.4600209644251635E-4    2.2915267438839527E-4    2.1728884216407754E-4    2.0835069476996017E-4    2.0124345655199772E-4    1.9537869530341948E-4    1.9045230609011167E-4    1.8622965441454073E-4    1.8254715960634282E-4    1.7928984901501385E-4    1.7637732927657803E-4    1.737491481734829E-4
0.029999999999999978      0.0010000000002929111    3.6045642184365397E-4    2.9767741358289383E-4    2.6805833503609934E-4    2.4973238286821154E-4    2.3682202843388226E-4    2.2709179196509047E-4    2.193530714636883E-4     2.1296628502872808E-4    2.0760056300591636E-4    2.030008249799083E-4     1.9898918116103168E-4    1.9544050641526529E-4    1.922672901351214E-4     1.8940374148665768E-4
0.030999999999999975      0.0010000000000402883    3.885750082476961E-4     3.21222627948401E-4      2.893531346551907E-4     2.696120397365104E-4     2.556965396785249E-4     2.4520440727690817E-4    2.3685776667431267E-4    2.299681438542114E-4     2.2417898314454704E-4    2.192156433907367E-4     2.1488652855833996E-4    2.110567597799628E-4     2.0763198285191499E-4    2.0454127738561473E-4
0.03199999999999997       0.001000000000005411     4.156063325809306E-4     3.439464490468064E-4     3.099304644898248E-4     2.8883312479808946E-4    2.7395200491038075E-4    2.627267224422218E-4     2.537945473395711E-4     2.4642029126380335E-4    2.4022274559948103E-4    2.349085602992617E-4     2.30273012173409E-4      2.2617184960612227E-4    2.2250413561673352E-4    2.1919401973067974E-4
0.032999999999999974      0.001000000000000714     4.4159909859262575E-4    3.6589201143395685E-4    3.2983017711214145E-4    3.0743324389298694E-4    2.916243592846461E-4     2.79693365741408E-4      2.7019697859152514E-4    2.623554013186681E-4     2.557637645143636E-4     2.501108309268416E-4     2.4517930784071477E-4    2.4081593592751457E-4    2.3691344469044796E-4    2.3339124435788847E-4
0.03399999999999997       0.0010000000000000928    4.665977953576829E-4     3.870985379760415E-4     3.4908850720830097E-4    3.254465955661353E-4     3.0874628781539564E-4    2.9613583821337815E-4    2.860955977369062E-4     2.7780320322988737E-4    2.70831079839128E-4      2.648508973734319E-4     2.59633331777283E-4      2.550164666895593E-4     2.508869369131581E-4     2.471595962848155E-4
0.03499999999999996       0.001000000000000012     4.906432488378133E-4     4.076018090456777E-4     3.677384979124079E-4     3.429043700216495E-4     3.2534760472181486E-4    3.1208287804770956E-4    3.0151826667236477E-4    2.927908238394276E-4     2.854511914213278E-4     2.7915471548987486E-4    2.7366056114227295E-4    2.687984927121059E-4     2.6444927965246887E-4    2.605233951267836E-4
0.03599999999999996       0.0010000000000000013    5.137730943300041E-4     4.274345653858969E-4     3.858103669848147E-4     3.598350918139148E-4     3.414555792909276E-4     3.2756077360890276E-4    3.1649047462626266E-4    3.0734308183268555E-4    2.996483460143025E-4     2.9304603568673464E-4    2.8728430942494753E-4    2.82184938271055E-4      2.776230470785926E-4     2.7350489747978416E-4
0.036999999999999963      0.0010000000000000002    5.360221817083027E-4     4.466268555366051E-4     4.033318227272402E-4     3.7626491552973944E-4    3.5709521705402854E-4    3.4259363354153404E-4    3.310355993967878E-4     3.2148274162106886E-4    3.1344478494539337E-4    3.06546645254946E-4      3.005259640894498E-4     2.9519683459709956E-4    2.9042894994799854E-4    2.861245233464962E-4
0.037999999999999964      0.001                    5.57422924305129E-4      4.652063366774233E-4     4.203283376788973E-4     3.9221788198710747E-4    3.7228950343085477E-4    3.5720362082709704E-4    3.451751337303697E-4     3.3523073335052056E-4    3.268609587413816E-4     3.196765783588854E-4     3.1340519251760613E-4    3.078535222269989E-4     3.028860347362434E-4     2.984010523603863E-4
0.038999999999999965      0.001                    5.780056004838899E-4     4.8319853612723425E-4    4.368233866739474E-4     4.07716141106804E-4      3.870596156939965E-4     3.714111564134128E-4     3.5892888227577506E-4    3.486063443175665E-4     3.3991571386289825E-4    3.324542987419247E-4     3.259401211921659E-4     3.201728270632337E-4     3.1501185689830353E-4    3.103517945161581E-4
0.039999999999999966      0.001                    5.97798614788095E-4      5.0062707945992E-4       4.5283865467347814E-4    4.227801465214145E-4     4.0142510806824995E-4    3.8523509704085034E-4    3.7231513358557984E-4    3.616273861380658E-4     3.52626455786215E-4      3.4489685929100703E-4    3.381474921866827E-4     3.321712141370662E-4     3.2682263218766457E-4    3.219927392801659E-4
0.04099999999999997       0.001                    6.168287242417185E-4     5.175138901684983E-4     4.683942188488053E-4     4.374288261102321E-4     4.154040739469404E-4     3.986928910899271E-4     3.8535081086344585E-4    3.743103412625003E-4     3.6500929193796226E-4    3.5702004188983665E-4    3.500428003252122E-4     3.438639223792924E-4     3.3833336928572533E-4    3.333386862847075E-4
0.04199999999999997       0.001                    6.351212346606286E-4     5.338793649778233E-4     4.8350870863715086E-4    4.516797319415951E-4     4.2901328853515227E-4    4.118007156294131E-4     3.980516045315144E-4     3.866704918251868E-4     3.7707915739680403E-4    3.6883848041157616E-4    3.616404138075083E-4     3.55265083145457E-4      3.49557986444456E-4      3.444033602695123E-4
0.04299999999999996       0.001                    6.527001711785329E-4     5.497425282287172E-4     4.981994468773517E-4     4.655491725303374E-4     4.4226833468430734E-4    4.245735973201664E-4     4.1043208918563665E-4    3.9872203332254693E-4    3.888499257959453E-4     3.8036576923223083E-4    3.7295368063480197E-4    3.663878247897422E-4     3.6050941439992953E-4    3.5519951249497517E-4
0.04399999999999996       0.001                    6.695884265388811E-4     5.651211682038535E-4     5.12482574632756E-4      4.7905232984979434E-4    4.551837142373941E-4     4.3702551940242917E-4    4.225058270927655E-4     4.104781752138807E-4     4.003345074685577E-4     3.91614559262583E-4      3.839950227953483E-4     3.7724436521245364E-4    3.711996874509496E-4     3.657390104936046E-4
0.04499999999999996       0.001                    6.858078901053719E-4     5.800319578139741E-4     5.2637316189803E-4       4.922033631537866E-4     4.677729468390893E-4     4.4916951664370164E-4    4.342854600457969E-4     4.2195123020864723E-4    4.115449365568443E-4     4.025966431821648E-4     3.9477601986065956E-4    3.878460940031375E-4     3.8164002429894424E-4    3.7603291773248467E-4
0.04599999999999996       0.001                    7.01379560026576E-4      5.944905616921269E-4     5.398853060484234E-4     5.050155013475779E-4     4.800486578641676E-4     4.610177598353753E-4     4.457827911117466E-4     4.3315269373274753E-4    4.224924485406586E-4     4.1332303129968105E-4    4.0530748338926594E-4    3.982036455517522E-4     3.9184089999967544E-4    3.8609156451751544E-4
0.04699999999999996       0.001                    7.163236406071546E-4     6.085117314369217E-4     5.530322196100844E-4     5.175011253848222E-4     4.920226568685361E-4     4.72581631187094E-4      4.57008857577828E-4      4.440933148415383E-4     4.331875494223256E-4     4.2380401924978846E-4    4.155995233245085E-4     4.083269642936514E-4     4.0181211017394525E-4    3.959246112698203E-4
0.04799999999999996       0.001                    7.306596266867913E-4     6.221093904902129E-4     5.658263086972819E-4     5.296718419497168E-4     5.037060077601408E-4     4.8387179176892443E-4    4.6797399620764974E-4    4.547831596603922E-4     4.436400776220141E-4     4.340492485577804E-4     4.2566160739796475E-4    4.182253630823018E-4     4.115628284553789E-4     4.0554110513808724E-4
0.04899999999999996       0.001                    7.444063766337636E-4     6.352967099205565E-4     5.782792432680625E-4     5.415385495017077E-4     5.151090917140812E-4     4.94898241985327E-4      4.786879017591631E-4     4.652316682775648E-4     4.5385925948577253E-4    4.4406776095479964E-4    4.3550261440405383E-4    4.2790757554015427E-4    4.2110165801216977E-4    4.1494953077147404E-4
0.04999999999999996       0.001                    7.575821753624826E-4     6.480861762042346E-4     5.904020201869802E-4     5.531114976076523E-4     5.26241663711316E-4      5.056703759257037E-4     4.891596795813319E-4     4.7544770588328557E-4    4.638537591807208E-4     4.5386804720133866E-4    4.451308820889384E-4     4.37381803117805E-4      4.3043667786128986E-4    4.2415785596107056E-4
0.05099999999999996       0.001                    7.702047885836931E-4     6.604896519448194E-4     6.022050199464999E-4     5.644003403580559E-4     5.371129034583661E-4     5.161970303191371E-4     4.993978929932168E-4     4.8543960883889895E-4    4.736317236444996E-4     4.634580910717263E-4     4.545542502937955E-4     4.4665575749033837E-4    4.395754845940504E-4     4.3317357275975046E-4
0.05199999999999996       0.001                    7.822915093214697E-4     6.725184303452461E-4     6.13698057782931E-4      5.754141845556732E-4     5.477314613424138E-4     5.264865287219843E-4     5.094106060534572E-4     4.952152262668857E-4     4.832008231653635E-4     4.7284540906354324E-4    4.6378009990551003E-4    4.557366988342471E-4     4.48525230047757E-4      4.420037346073331E-4
0.052999999999999964      0.001                    7.938591975977139E-4     6.841832841388733E-4     6.248904298246947E-4     5.861616332729446E-4     5.581054999888695E-4     5.365467214831242E-4     5.192054222470431E-4     5.047819576737791E-4     4.925682880924271E-4     4.820370863207077E-4     4.728153880940737E-4     4.6463147045584634E-4    4.572926553868927E-4     4.5065498991770915E-4
0.05399999999999996       0.001                    8.049243140847624E-4     6.954945095945772E-4     6.35790954827328E-4      5.966508252966691E-4     5.682427319142514E-4     5.463850219603435E-4     5.287895195472794E-4     5.141467870509675E-4     5.017409421101878E-4     4.910398091949866E-4     4.816666802532528E-4     4.7334653018047247E-4    4.658841219965977E-4     4.591336125248157E-4
0.05499999999999996       0.001                    8.155029484442439E-4     7.064619661328384E-4     6.464080119785297E-4     6.068894709117183E-4     5.781504537038699E-4     5.560084394004928E-4     5.381696822520258E-4     5.233163138411848E-4     5.107252324556706E-4     4.998598948161327E-4     4.903401790075582E-4     4.818879788591621E-4     4.743056395394914E-4     4.6744552933336683E-4
0.05599999999999995       0.001                    8.256108429949774E-4     7.170951120229178E-4     6.567495751956619E-4     6.168848844185905E-4     5.878355770896137E-4     5.654236088439761E-4     5.473523299429038E-4     5.322967811095632E-4     5.195272574087968E-4     5.085033179941204E-4     4.988417506027571E-4     4.902615863045236E-4     4.825628914825679E-4     4.755963454765954E-4
0.056999999999999953      0.001                    8.352634122824075E-4     7.274030365738148E-4     6.668232442859289E-4     6.266440137307172E-4     5.973046572566057E-4     5.746368183694617E-4     5.563435438729809E-4     5.410941012161007E-4     5.281527913456076E-4     5.169757357368868E-4     5.071769489578453E-4     4.984728149288614E-4     4.906612583629144E-4     4.835913672458203E-4
0.057999999999999954      0.001                    8.44475759058587E-4      7.373944891823556E-4     6.766362732944876E-4     6.361734673552938E-4     6.065639186674564E-4     5.836540339561987E-4     5.651490910511846E-4     5.49713879250254E-4      5.36607307608693E-4      5.252825096324456E-4     5.153510376225555E-4     5.065268413243781E-4     4.986058390282475E-4     4.914356230243963E-4
0.058999999999999955      0.001                    8.532626871267068E-4     7.470779055591572E-4     6.861955963269617E-4     6.454795390251104E-4     6.156192786582752E-4     5.924809222081457E-4     5.737744462596321E-4     5.581614344571425E-4     5.448959994187311E-4     5.334287263144765E-4     5.233690098552632E-4     5.14428575996569E-4      5.064014700600413E-4     4.991338824307703E-4
0.059999999999999956      0.001                    8.616387114573231E-4     7.56461431416398E-4      6.955078510992762E-4     6.545682302173818E-4     6.24476369030689E-4      6.011228711553619E-4     5.822248122122178E-4     5.664418198578427E-4     5.530237990246877E-4     5.414192162046869E-4     5.312356070108678E-4     5.22182681437074E-4      5.140527435625512E-4     5.06690673851291E-4
0.06099999999999996       0.001                    8.69618065943083E-4      7.655529438693247E-4     7.045794004386036E-4     6.634452707683131E-4     6.331405558381638E-4     6.095850093231766E-4     5.905051380387245E-4     5.745598402428046E-4     5.609953952673641E-4     5.492585707028884E-4     5.389553354062739E-4     5.297935887007008E-4     5.215640234798401E-4     5.141103005224865E-4
0.06199999999999996       0.001                    8.772147091231462E-4     7.743600707756142E-4     7.134163519339031E-4     6.721161377683944E-4     6.416169575423492E-4     6.178722232379646E-4     5.986201362577063E-4     5.825200686970418E-4     5.688152497110785E-4     5.56951157976246E-4      5.465324818120314E-4     5.372655126325783E-4     5.28939460584436E-4      5.213968553043677E-4
0.06299999999999996       0.001                    8.844423281763663E-4     7.828902082124138E-4     7.220245759124524E-4     6.805860729027438E-4     6.499104616954862E-4     6.259891735194361E-4     6.065742983831229E-4     5.903268617979666E-4     5.764876114809312E-4     5.64501137482206E-4      5.539711277020341E-4     5.446024658750437E-4     5.361830062651819E-4     5.285542342704385E-4
0.06399999999999996       0.001                    8.9131434145309E-4       7.911505362696542E-4     7.304097218994968E-4     6.888600983827314E-4     6.580257402877163E-4     6.339403096928272E-4     6.143719092937128E-4     5.979843736111948E-4     5.840165309279378E-4     5.719124733447747E-4     5.612751623786329E-4     5.518082717695757E-4     5.432984252277615E-4     5.355861492262466E-4
0.06499999999999995       0.001                    8.978438997888396E-4     7.991480333195981E-4     7.385772337012412E-4     6.969430315992862E-4     6.659672638830728E-4     6.417298838398925E-4     6.220170604800818E-4     6.054965685960479E-4     5.914058722310491E-4     5.79188946690809E-4      5.684482950777878E-4     5.588865762565736E-4     5.502893072090582E-4     5.424961392561545E-4
0.06599999999999995       0.001                    9.040438868190768E-4     8.068894889062348E-4     7.465323632365953E-4     7.048394986143998E-4     6.737393146547078E-4     6.493619631948993E-4     6.295136622721996E-4     6.12867233520534E-4      5.986593250333998E-4     5.863341670416019E-4     5.754940661476905E-4     5.658408588647826E-4     5.57159077795705E-4      5.492875813873765E-4
0.06699999999999995       0.001                    9.099269184923341E-4     8.143815153837011E-4     7.542801832300425E-4     7.125539465951102E-4     6.813459984182775E-4     6.568404417806417E-4     6.368654551391814E-4     6.200999884750705E-4     6.057804151998919E-4     5.933515828449925E-4     5.824158573844559E-4     5.72674442872507E-4      5.639110084276584E-4     5.559637004509259E-4
0.06799999999999995       0.001                    9.155053419591094E-4     8.216305584201878E-4     7.618255988665214E-4     7.200906552834774E-4     6.887912557521772E-4     6.641690511696399E-4     6.440760201437036E-4     6.271982970649639E-4     6.127725147741879E-4     6.002444912243999E-4     5.892169015998035E-4     5.793905047142331E-4     5.705482256592477E-4     5.625275782108758E-4
0.06899999999999995       0.001                    9.207912339956287E-4     8.286429064725108E-4     7.691733584990509E-4     7.274537475865738E-4     6.960788722842416E-4     6.713513704469893E-4     6.511487886249961E-4     6.341654758534731E-4     6.196388512051766E-4     6.070160470133681E-4     5.959002914879958E-4     5.859920826987436E-4     5.770737197427474E-4     5.689821618260279E-4
0.06999999999999995       0.001                    9.257963991047947E-4     8.354246993265205E-4     7.763280634908682E-4     7.346471993620589E-4     7.032124882165441E-4     6.783908354436337E-4     6.580870511768751E-4     6.410047031200554E-4     6.26382515905951E-4      6.136692711372851E-4     6.024689878525266E-4     5.924820850981721E-4     5.834903525929518E-4     5.753302717016223E-4
0.07099999999999995       0.001                    9.305323674210678E-4     8.419819357896333E-4     7.832941772658861E-4     7.416748484674917E-4     7.101956071528179E-4     6.852907473019902E-4     6.648939659807297E-4     6.477190269919659E-4     6.33006472202048E-4      6.202070583978417E-4     6.089258272470334E-4     5.988632976615157E-4     5.898008651854531E-4     5.815746087830107E-4
0.07199999999999995       0.001                    9.350103925316681E-4     8.483204806138232E-4     7.900760336341978E-4     7.485404031348818E-4     7.170316042867243E-4     6.920542804298293E-4     6.715725665474674E-4     6.543113730017056E-4     6.395135627201583E-4     6.266321847103191E-4     6.152735290795833E-4     6.051383906009029E-4     5.960078844361243E-4     5.877177613381159E-4
0.07299999999999995       0.001                    9.39241449313096E-4      8.544460707203253E-4     7.966778444530918E-4     7.552474497261053E-4     7.237237340035992E-4     6.986844898928805E-4     6.781257689172384E-4     6.607845511177213E-4     6.459065162635549E-4     6.329473138389893E-4     6.215147022247361E-4     6.113099250942338E-4     6.021139296047507E-4     5.937622112709888E-4
0.07399999999999995       0.001                    9.43236231869648E-4      8.603643207909585E-4     8.031037066784146E-4     7.61799459919554E-4      7.302751369432963E-4     7.051843182918706E-4     6.845563783611015E-4     6.671412622912688E-4     6.521879542160981E-4     6.391550036715717E-4     6.27651851183545E-4      6.173803593436708E-4     6.081214182616499E-4     5.997103400047347E-4
0.07499999999999996       0.001                    9.470051516490627E-4     8.660807282852524E-4     8.093576088561192E-4     7.681997973737188E-4     7.366888465673083E-4     7.115566021653832E-4     6.908670956246476E-4     6.733841045583045E-4     6.583603965127252E-4     6.452577120698572E-4     6.336873818278977E-4     6.233520542257303E-4     6.140326718524681E-4     6.055644339684902E-4
0.07599999999999996       0.001                    9.505583357998019E-4     8.716006779374511E-4     8.154434370993691E-4     7.744517239091927E-4     7.429677952693557E-4     7.178040779561186E-4     6.970605227498913E-4     6.795155787316812E-4     6.644262672108258E-4     6.51257802330155E-4      6.3962360676222E-4       6.292272785654261E-4     6.198499208930764E-4     6.113266897199108E-4
0.07699999999999994       0.001                    9.539056258245645E-4     8.76929445782821E-4      8.213649805925399E-4     7.805584052468607E-4     7.491148200650691E-4     7.239293875746824E-4     7.031391685084316E-4     6.855380937156844E-4     6.703878996937574E-4     6.571575482841602E-4     6.45462750332528E-4      6.350082140639299E-4     6.255753098235831E-4     6.169992187317557E-4
0.07799999999999994       0.001                    9.570565765754484E-4     8.820722027585065E-4     8.271259366598729E-4     7.86522916336658E-4      7.551326678931922E-4     7.299350835919734E-4     7.09105453475881E-4      6.914539714720701E-4     6.762475415349223E-4     6.62959139068036E-4      6.512069533101324E-4     6.406969599065695E-4     6.312109015478291E-4     6.225840518685619E-4
0.07899999999999995       0.001                    9.600204556276909E-4     8.870340179203879E-4     8.327299154332954E-4     7.923482463082789E-4     7.610240005578689E-4     7.358236340884616E-4     7.149617147749263E-4     6.972654516641548E-4     6.820073590483034E-4     6.686646835850745E-4     6.568582772748373E-4     6.462955370755794E-4     6.36758681682409E-4      6.280831435770939E-4
0.07999999999999995       0.001                    9.628062430610641E-4     8.91819861313942E-4      8.381804441509989E-4     7.98037303072484E-4      7.667913993389859E-4     7.415974271861775E-4     7.20710210511947E-4      7.029746960031827E-4     6.87669441549072E-4      6.742762146850159E-4     6.624187087203068E-4     6.518058923898716E-4     6.422205625371237E-4     6.334983758121616E-4
0.08099999999999995       0.001                    9.654226316707623E-4     8.96434606533975E-4      8.434809711157466E-4     8.035929175992234E-4     7.724373692952338E-4     7.472587752869852E-4     7.263531239299744E-4     7.085837923190866E-4     6.932358053458213E-4     6.797956930811382E-4     6.67890162902292E-4      6.572299022921657E-4     6.475983868468733E-4     6.388315617175239E-4
0.08199999999999995       0.001                    9.67878027622997E-4      9.008830330052283E-4     8.486348693394996E-4     8.09017847896578E-4      7.779643432824358E-4     7.528099190386994E-4     7.318925672988218E-4     7.140947583758625E-4     6.987083974841431E-4     6.85225011024399E-4      6.732744874486323E-4     6.62569376402058E-4      6.528939312732825E-4     6.440844490798953E-4
0.08299999999999993       0.001                    9.701805515644236E-4     9.051698280132481E-4     8.536454398988032E-4     8.143147827125424E-4     7.833746857078178E-4     7.582530310487877E-4     7.373305855614338E-4     7.195095454500798E-4     7.040890992595749E-4     6.905659957522568E-4     6.785734657483542E-4     6.678260608520429E-4     6.581089096927842E-4     6.492587235725563E-4
0.08399999999999994       0.001                    9.7233804018901E-4       9.092995885125067E-4     8.585159150234246E-4     8.19486344979847E-4      7.886706960391726E-4     7.635902193637466E-4     7.426691597539458E-4     7.248300416894724E-4     7.093797295164541E-4     6.958204127283675E-4     6.837888201357132E-4     6.730016414220731E-4     6.632449762865027E-4     6.543560118036672E-4
0.08499999999999992       0.001                    9.743580482609295E-4     9.132768227365669E-4     8.632494609389608E-4     8.245350950224162E-4     7.938546120863257E-4     7.688235307307541E-4     7.479102102154632E-4     7.300580752671889E-4     7.145820477478241E-4     7.00989968687957E-4      6.889222148837402E-4     6.780977464869397E-4     6.683037284459977E-4     6.59377884183152E-4
0.08599999999999991       0.001                    9.762478510875935E-4     9.171059516330524E-4     8.678491804825347E-4     8.294635335405534E-4     7.989286130709086E-4     7.73954953656849E-4      7.530555996022928E-4     7.351954173459876E-4     7.196977570103227E-4     7.060763145024937E-4     6.939752590206421E-4     6.831159497896116E-4     6.732867095077687E-4     6.643258576208671E-4
0.08699999999999991       0.001                    9.780144474328689E-4     9.207913101443267E-4     8.723181155092198E-4     8.34274104390618E-4      8.038948224991663E-4     7.789864212796576E-4     7.581071357201636E-4     7.402437848655122E-4     7.247285066668386E-4     7.110810478761785E-4     6.989495089813297E-4     6.880577730525786E-4     6.781954113284051E-4     6.692013980677569E-4
0.0879999999999999        0.001                    9.796645628570074E-4     9.24337148353057E-4      8.76659249105505E-4      8.389691971737259E-4     8.087553108513763E-4     7.839198140625872E-4     7.630665741868774E-4     7.452048431647511E-4     7.296758949687056E-4     7.160057158857394E-4     7.038464711053771E-4     6.929246884383097E-4     6.830312767112719E-4     6.740059229107385E-4
0.0889999999999999        0.001                    9.812046534666628E-4     9.277476325102507E-4     8.808755076248878E-4     8.435511496469083E-4     8.135120981003935E-4     7.887569623263722E-4     7.67935620936895E-4      7.500802084508138E-4     7.345414714882856E-4     7.208518173741594E-4     7.08667603991801E-4      6.977181208690339E-4     6.877957016948112E-4     6.787408032312414E-4
0.08999999999999989       0.001                    9.826409100556928E-4     9.310268459618738E-4     8.849697625595644E-4     8.480222499691335E-4     8.181671560708885E-4     7.93499648627961E-4      7.72715934578413E-4      7.548714501243012E-4     7.393267394119239E-4     7.256208052080844E-4     7.134143207202562E-4     7.024394502152705E-4     6.924900377117004E-4     6.834073659365157E-4
0.09099999999999989       0.001                    9.839792626151421E-4     9.341787899888006E-4     8.889448322611578E-4     8.523847387936818E-4     8.227224106499591E-4     7.981496099968702E-4     7.774091286127306E-4     7.595800929707552E-4     7.440331577025064E-4     7.303140884079406E-4     7.180879909474942E-4     7.070900133617978E-4     6.971155936274396E-4     6.880068957721464E-4
0.09199999999999987       0.001                    9.852253851888792E-4     9.372073845735657E-4     8.928034835224929E-4     8.566408112175224E-4     8.271797438590063E-4     8.027085400383765E-4     7.820167735249124E-4     7.642076192269475E-4     7.486621431401433E-4     7.349330341590789E-4     7.226899428872416E-4     7.116711061590922E-4     7.016736376662435E-4     6.925406372235433E-4