<?xml version="1.0"?>
<VTKFile type="UnstructuredGrid" version="0.1" byte_order="LittleEndian">
  <UnstructuredGrid>
    <Piece NumberOfCells="45" NumberOfPoints="96">
      <CellData Scalars="p (Pa)">
        <DataArray type="Float32" Name="p (Pa)" NumberOfComponents="1" format="ascii">
          -620349 -688593 -681379 -595026 -670777 -683955 -551077 -588591 -605551 -825939 -1.22631e+06 -979225
          -762366 -1.29073e+06 -1.22492e+06 -641351 -741966 -766700 -1.20019e+06 -1.33197e+06 -1.31027e+06 -893921 -1.31667e+06 -1.30065e+06
          -721014 -828460 -862262 -1.01959e+06 -1.33228e+06 -1.33812e+06 -901721 -1.31718e+06 -1.29066e+06 -751569 -856585 -881117
          -973893 -1.33084e+06 -1.1237e+06 -897563 -1.31727e+06 -1.0314e+06 -757159 -851955 -830681
        </DataArray>
        <DataArray type="Float32" Name="saturation" NumberOfComponents="1" format="ascii">
          0.737669 0.733312 0.733753 0.739402 0.734409 0.733595 0.742579 0.739853 0.738674 0.72567 0.708971 0.718482
          0.729041 0.706809 0.709019 0.736282 0.730181 0.728803 0.709881 0.705481 0.706175 0.722333 0.705969 0.706486
          0.731384 0.725541 0.723855 0.716775 0.705472 0.705287 0.721966 0.705953 0.706811 0.729641 0.724133 0.722942
          0.718713 0.705517 0.712664 0.722161 0.70595 0.716288 0.729329 0.724362 0.725428
        </DataArray>
        <DataArray type="Float32" Name="process rank" NumberOfComponents="1" format="ascii">
          0 0 0 0 0 0 0 0 0 0 0 0
          0 0 0 0 0 0 0 0 0 0 0 0
          0 0 0 0 0 0 0 0 0 0 0 0
          0 0 0 0 0 0 0 0 0
        </DataArray>
      </CellData>
      <Points>
        <DataArray type="Float32" Name="Coordinates" NumberOfComponents="3" format="ascii">
          -0.04 -0.04 -0.15 -0.0133333 -0.04 -0.15 -0.04 -0.0133333 -0.15 -0.0133333 -0.0133333 -0.15
          -0.04 -0.04 -0.12 -0.0133333 -0.04 -0.12 -0.04 -0.0133333 -0.12 -0.0133333 -0.0133333 -0.12
          0.0133333 -0.04 -0.15 0.0133333 -0.0133333 -0.15 0.0133333 -0.04 -0.12 0.0133333 -0.0133333 -0.12
          0.04 -0.04 -0.15 0.04 -0.0133333 -0.15 0.04 -0.04 -0.12 0.04 -0.0133333 -0.12
          -0.04 0.0133333 -0.15 -0.0133333 0.0133333 -0.15 -0.04 0.0133333 -0.12 -0.0133333 0.0133333 -0.12
          0.0133333 0.0133333 -0.15 0.0133333 0.0133333 -0.12 0.04 0.0133333 -0.15 0.04 0.0133333 -0.12
          -0.04 0.04 -0.15 -0.0133333 0.04 -0.15 -0.04 0.04 -0.12 -0.0133333 0.04 -0.12
          0.0133333 0.04 -0.15 0.0133333 0.04 -0.12 0.04 0.04 -0.15 0.04 0.04 -0.12
          -0.04 -0.04 -0.09 -0.0133333 -0.04 -0.09 -0.04 -0.0133333 -0.09 -0.0133333 -0.0133333 -0.09
          0.0133333 -0.04 -0.09 0.0133333 -0.0133333 -0.09 0.04 -0.04 -0.09 0.04 -0.0133333 -0.09
          -0.04 0.0133333 -0.09 -0.0133333 0.0133333 -0.09 0.0133333 0.0133333 -0.09 0.04 0.0133333 -0.09
          -0.04 0.04 -0.09 -0.0133333 0.04 -0.09 0.0133333 0.04 -0.09 0.04 0.04 -0.09
          -0.04 -0.04 -0.06 -0.0133333 -0.04 -0.06 -0.04 -0.0133333 -0.06 -0.0133333 -0.0133333 -0.06
          0.0133333 -0.04 -0.06 0.0133333 -0.0133333 -0.06 0.04 -0.04 -0.06 0.04 -0.0133333 -0.06
          -0.04 0.0133333 -0.06 -0.0133333 0.0133333 -0.06 0.0133333 0.0133333 -0.06 0.04 0.0133333 -0.06
          -0.04 0.04 -0.06 -0.0133333 0.04 -0.06 0.0133333 0.04 -0.06 0.04 0.04 -0.06
          -0.04 -0.04 -0.03 -0.0133333 -0.04 -0.03 -0.04 -0.0133333 -0.03 -0.0133333 -0.0133333 -0.03
          0.0133333 -0.04 -0.03 0.0133333 -0.0133333 -0.03 0.04 -0.04 -0.03 0.04 -0.0133333 -0.03
          -0.04 0.0133333 -0.03 -0.0133333 0.0133333 -0.03 0.0133333 0.0133333 -0.03 0.04 0.0133333 -0.03
          -0.04 0.04 -0.03 -0.0133333 0.04 -0.03 0.0133333 0.04 -0.03 0.04 0.04 -0.03
          -0.04 -0.04 0 -0.0133333 -0.04 0 -0.04 -0.0133333 0 -0.0133333 -0.0133333 0
          0.0133333 -0.04 0 0.0133333 -0.0133333 0 0.04 -0.04 0 0.04 -0.0133333 0
          -0.04 0.0133333 0 -0.0133333 0.0133333 0 0.0133333 0.0133333 0 0.04 0.0133333 0
          -0.04 0.04 0 -0.0133333 0.04 0 0.0133333 0.04 0 0.04 0.04 0
        </DataArray>
      </Points>
      <Cells>
        <DataArray type="Int32" Name="connectivity" NumberOfComponents="1" format="ascii">
          0 1 3 2 4 5 7 6 1 8 9 3
          5 10 11 7 8 12 13 9 10 14 15 11
          2 3 17 16 6 7 19 18 3 9 20 17
          7 11 21 19 9 13 22 20 11 15 23 21
          16 17 25 24 18 19 27 26 17 20 28 25
          19 21 29 27 20 22 30 28 21 23 31 29
          4 5 7 6 32 33 35 34 5 10 11 7
          33 36 37 35 10 14 15 11 36 38 39 37
          6 7 19 18 34 35 41 40 7 11 21 19
          35 37 42 41 11 15 23 21 37 39 43 42
          18 19 27 26 40 41 45 44 19 21 29 27
          41 42 46 45 21 23 31 29 42 43 47 46
          32 33 35 34 48 49 51 50 33 36 37 35
          49 52 53 51 36 38 39 37 52 54 55 53
          34 35 41 40 50 51 57 56 35 37 42 41
          51 53 58 57 37 39 43 42 53 55 59 58
          40 41 45 44 56 57 61 60 41 42 46 45
          57 58 62 61 42 43 47 46 58 59 63 62
          48 49 51 50 64 65 67 66 49 52 53 51
          65 68 69 67 52 54 55 53 68 70 71 69
          50 51 57 56 66 67 73 72 51 53 58 57
          67 69 74 73 53 55 59 58 69 71 75 74
          56 57 61 60 72 73 77 76 57 58 62 61
          73 74 78 77 58 59 63 62 74 75 79 78
          64 65 67 66 80 81 83 82 65 68 69 67
          81 84 85 83 68 70 71 69 84 86 87 85
          66 67 73 72 82 83 89 88 67 69 74 73
          83 85 90 89 69 71 75 74 85 87 91 90
          72 73 77 76 88 89 93 92 73 74 78 77
          89 90 94 93 74 75 79 78 90 91 95 94
        </DataArray>
        <DataArray type="Int32" Name="offsets" NumberOfComponents="1" format="ascii">
          8 16 24 32 40 48 56 64 72 80 88 96
          104 112 120 128 136 144 152 160 168 176 184 192
          200 208 216 224 232 240 248 256 264 272 280 288
          296 304 312 320 328 336 344 352 360
        </DataArray>
        <DataArray type="UInt8" Name="types" NumberOfComponents="1" format="ascii">
          12 12 12 12 12 12 12 12 12 12 12 12
          12 12 12 12 12 12 12 12 12 12 12 12
          12 12 12 12 12 12 12 12 12 12 12 12
          12 12 12 12 12 12 12 12 12
        </DataArray>
      </Cells>
    </Piece>
  </UnstructuredGrid>
</VTKFile>
