<?xml version="1.0"?>
<VTKFile type="UnstructuredGrid" version="0.1" byte_order="LittleEndian">
  <UnstructuredGrid>
    <Piece NumberOfCells="45" NumberOfPoints="96">
      <CellData Scalars="p (Pa)">
        <DataArray type="Float32" Name="p (Pa)" NumberOfComponents="1" format="ascii">
          -38183.8 -103404 -57665.4 -28674.1 -92867.6 -101697 -11071.9 -27923.5 -34687 -161612 -1.28531e+06 -213860
          -113186 -1.30852e+06 -1.28175e+06 -36071.6 -110630 -129422 -1.28833e+06 -1.3553e+06 -1.3353e+06 -176836 -1.3285e+06 -1.32825e+06
          -53043.9 -142296 -170557 -278003 -1.34839e+06 -1.3477e+06 -149803 -1.32723e+06 -1.31166e+06 -53443 -142804 -154385
          -187501 -1.33764e+06 -242567 -145283 -1.32479e+06 -192501 -52034 -130641 -69990.1
        </DataArray>
        <DataArray type="Float32" Name="saturation" NumberOfComponents="1" format="ascii">
          0.258462 0.243486 0.25296 0.261622 0.245347 0.243777 0.268581 0.261887 0.259583 0.235441 0.20422 0.230331
          0.241891 0.204039 0.204248 0.259134 0.242296 0.239487 0.204196 0.20369 0.203837 0.233794 0.203888 0.20389
          0.254164 0.237766 0.234455 0.225658 0.203741 0.203746 0.236828 0.203898 0.204015 0.254058 0.237701 0.236278
          0.232723 0.20382 0.228067 0.237387 0.203916 0.232243 0.254434 0.239317 0.250009
        </DataArray>
        <DataArray type="Float32" Name="process rank" NumberOfComponents="1" format="ascii">
          0 0 0 0 0 0 0 0 0 0 0 0
          0 0 0 0 0 0 0 0 0 0 0 0
          0 0 0 0 0 0 0 0 0 0 0 0
          0 0 0 0 0 0 0 0 0
        </DataArray>
      </CellData>
      <Points>
        <DataArray type="Float32" Name="Coordinates" NumberOfComponents="3" format="ascii">
          -0.04 -0.04 -0.15 -0.0133333 -0.04 -0.15 -0.04 -0.0133333 -0.15 -0.0133333 -0.0133333 -0.15
          -0.04 -0.04 -0.12 -0.0133333 -0.04 -0.12 -0.04 -0.0133333 -0.12 -0.0133333 -0.0133333 -0.12
          0.0133333 -0.04 -0.15 0.0133333 -0.0133333 -0.15 0.0133333 -0.04 -0.12 0.0133333 -0.0133333 -0.12
          0.04 -0.04 -0.15 0.04 -0.0133333 -0.15 0.04 -0.04 -0.12 0.04 -0.0133333 -0.12
          -0.04 0.0133333 -0.15 -0.0133333 0.0133333 -0.15 -0.04 0.0133333 -0.12 -0.0133333 0.0133333 -0.12
          0.0133333 0.0133333 -0.15 0.0133333 0.0133333 -0.12 0.04 0.0133333 -0.15 0.04 0.0133333 -0.12
          -0.04 0.04 -0.15 -0.0133333 0.04 -0.15 -0.04 0.04 -0.12 -0.0133333 0.04 -0.12
          0.0133333 0.04 -0.15 0.0133333 0.04 -0.12 0.04 0.04 -0.15 0.04 0.04 -0.12
          -0.04 -0.04 -0.09 -0.0133333 -0.04 -0.09 -0.04 -0.0133333 -0.09 -0.0133333 -0.0133333 -0.09
          0.0133333 -0.04 -0.09 0.0133333 -0.0133333 -0.09 0.04 -0.04 -0.09 0.04 -0.0133333 -0.09
          -0.04 0.0133333 -0.09 -0.0133333 0.0133333 -0.09 0.0133333 0.0133333 -0.09 0.04 0.0133333 -0.09
          -0.04 0.04 -0.09 -0.0133333 0.04 -0.09 0.0133333 0.04 -0.09 0.04 0.04 -0.09
          -0.04 -0.04 -0.06 -0.0133333 -0.04 -0.06 -0.04 -0.0133333 -0.06 -0.0133333 -0.0133333 -0.06
          0.0133333 -0.04 -0.06 0.0133333 -0.0133333 -0.06 0.04 -0.04 -0.06 0.04 -0.0133333 -0.06
          -0.04 0.0133333 -0.06 -0.0133333 0.0133333 -0.06 0.0133333 0.0133333 -0.06 0.04 0.0133333 -0.06
          -0.04 0.04 -0.06 -0.0133333 0.04 -0.06 0.0133333 0.04 -0.06 0.04 0.04 -0.06
          -0.04 -0.04 -0.03 -0.0133333 -0.04 -0.03 -0.04 -0.0133333 -0.03 -0.0133333 -0.0133333 -0.03
          0.0133333 -0.04 -0.03 0.0133333 -0.0133333 -0.03 0.04 -0.04 -0.03 0.04 -0.0133333 -0.03
          -0.04 0.0133333 -0.03 -0.0133333 0.0133333 -0.03 0.0133333 0.0133333 -0.03 0.04 0.0133333 -0.03
          -0.04 0.04 -0.03 -0.0133333 0.04 -0.03 0.0133333 0.04 -0.03 0.04 0.04 -0.03
          -0.04 -0.04 0 -0.0133333 -0.04 0 -0.04 -0.0133333 0 -0.0133333 -0.0133333 0
          0.0133333 -0.04 0 0.0133333 -0.0133333 0 0.04 -0.04 0 0.04 -0.0133333 0
          -0.04 0.0133333 0 -0.0133333 0.0133333 0 0.0133333 0.0133333 0 0.04 0.0133333 0
          -0.04 0.04 0 -0.0133333 0.04 0 0.0133333 0.04 0 0.04 0.04 0
        </DataArray>
      </Points>
      <Cells>
        <DataArray type="Int32" Name="connectivity" NumberOfComponents="1" format="ascii">
          0 1 3 2 4 5 7 6 1 8 9 3
          5 10 11 7 8 12 13 9 10 14 15 11
          2 3 17 16 6 7 19 18 3 9 20 17
          7 11 21 19 9 13 22 20 11 15 23 21
          16 17 25 24 18 19 27 26 17 20 28 25
          19 21 29 27 20 22 30 28 21 23 31 29
          4 5 7 6 32 33 35 34 5 10 11 7
          33 36 37 35 10 14 15 11 36 38 39 37
          6 7 19 18 34 35 41 40 7 11 21 19
          35 37 42 41 11 15 23 21 37 39 43 42
          18 19 27 26 40 41 45 44 19 21 29 27
          41 42 46 45 21 23 31 29 42 43 47 46
          32 33 35 34 48 49 51 50 33 36 37 35
          49 52 53 51 36 38 39 37 52 54 55 53
          34 35 41 40 50 51 57 56 35 37 42 41
          51 53 58 57 37 39 43 42 53 55 59 58
          40 41 45 44 56 57 61 60 41 42 46 45
          57 58 62 61 42 43 47 46 58 59 63 62
          48 49 51 50 64 65 67 66 49 52 53 51
          65 68 69 67 52 54 55 53 68 70 71 69
          50 51 57 56 66 67 73 72 51 53 58 57
          67 69 74 73 53 55 59 58 69 71 75 74
          56 57 61 60 72 73 77 76 57 58 62 61
          73 74 78 77 58 59 63 62 74 75 79 78
          64 65 67 66 80 81 83 82 65 68 69 67
          81 84 85 83 68 70 71 69 84 86 87 85
          66 67 73 72 82 83 89 88 67 69 74 73
          83 85 90 89 69 71 75 74 85 87 91 90
          72 73 77 76 88 89 93 92 73 74 78 77
          89 90 94 93 74 75 79 78 90 91 95 94
        </DataArray>
        <DataArray type="Int32" Name="offsets" NumberOfComponents="1" format="ascii">
          8 16 24 32 40 48 56 64 72 80 88 96
          104 112 120 128 136 144 152 160 168 176 184 192
          200 208 216 224 232 240 248 256 264 272 280 288
          296 304 312 320 328 336 344 352 360
        </DataArray>
        <DataArray type="UInt8" Name="types" NumberOfComponents="1" format="ascii">
          12 12 12 12 12 12 12 12 12 12 12 12
          12 12 12 12 12 12 12 12 12 12 12 12
          12 12 12 12 12 12 12 12 12 12 12 12
          12 12 12 12 12 12 12 12 12
        </DataArray>
      </Cells>
    </Piece>
  </UnstructuredGrid>
</VTKFile>
