<?xml version="1.0"?>
<VTKFile type="UnstructuredGrid" version="0.1" byte_order="LittleEndian">
  <UnstructuredGrid>
    <Piece NumberOfCells="16" NumberOfPoints="45">
      <CellData Scalars="p (Pa)">
        <DataArray type="Float32" Name="p (Pa)" NumberOfComponents="1" format="ascii">
          -550547 -561273 -542134 -467904 -1.16776e+06 -1.29668e+06 -1.24099e+06 -689387 -1.30535e+06 -1.32161e+06 -856491 -716038
          -1.31303e+06 -1.32417e+06 -681386 -663120
        </DataArray>
        <DataArray type="Float32" Name="saturation" NumberOfComponents="1" format="ascii">
          0.742619 0.741822 0.743254 0.749285 0.711038 0.706615 0.708468 0.733264 0.706333 0.705811 0.724138 0.731674
          0.706086 0.705729 0.733752 0.734888
        </DataArray>
        <DataArray type="Float32" Name="process rank" NumberOfComponents="1" format="ascii">
          0 0 0 0 0 0 0 0 0 0 0 0
          0 0 0 0
        </DataArray>
      </CellData>
      <Points>
        <DataArray type="Float32" Name="Coordinates" NumberOfComponents="3" format="ascii">
          -0.04 -0.04 -0.15 0 -0.04 -0.15 -0.04 0 -0.15 0 0 -0.15
          -0.04 -0.04 -0.1125 0 -0.04 -0.1125 -0.04 0 -0.1125 0 0 -0.1125
          0.04 -0.04 -0.15 0.04 0 -0.15 0.04 -0.04 -0.1125 0.04 0 -0.1125
          -0.04 0.04 -0.15 0 0.04 -0.15 -0.04 0.04 -0.1125 0 0.04 -0.1125
          0.04 0.04 -0.15 0.04 0.04 -0.1125 -0.04 -0.04 -0.075 0 -0.04 -0.075
          -0.04 0 -0.075 0 0 -0.075 0.04 -0.04 -0.075 0.04 0 -0.075
          -0.04 0.04 -0.075 0 0.04 -0.075 0.04 0.04 -0.075 -0.04 -0.04 -0.0375
          0 -0.04 -0.0375 -0.04 0 -0.0375 0 0 -0.0375 0.04 -0.04 -0.0375
          0.04 0 -0.0375 -0.04 0.04 -0.0375 0 0.04 -0.0375 0.04 0.04 -0.0375
          -0.04 -0.04 -6.93889e-18 0 -0.04 -6.93889e-18 -0.04 0 -6.93889e-18 0 0 -6.93889e-18
          0.04 -0.04 -6.93889e-18 0.04 0 -6.93889e-18 -0.04 0.04 -6.93889e-18 0 0.04 -6.93889e-18
          0.04 0.04 -6.93889e-18
        </DataArray>
      </Points>
      <Cells>
        <DataArray type="Int32" Name="connectivity" NumberOfComponents="1" format="ascii">
          0 1 3 2 4 5 7 6 1 8 9 3
          5 10 11 7 2 3 13 12 6 7 15 14
          3 9 16 13 7 11 17 15 4 5 7 6
          18 19 21 20 5 10 11 7 19 22 23 21
          6 7 15 14 20 21 25 24 7 11 17 15
          21 23 26 25 18 19 21 20 27 28 30 29
          19 22 23 21 28 31 32 30 20 21 25 24
          29 30 34 33 21 23 26 25 30 32 35 34
          27 28 30 29 36 37 39 38 28 31 32 30
          37 40 41 39 29 30 34 33 38 39 43 42
          30 32 35 34 39 41 44 43
        </DataArray>
        <DataArray type="Int32" Name="offsets" NumberOfComponents="1" format="ascii">
          8 16 24 32 40 48 56 64 72 80 88 96
          104 112 120 128
        </DataArray>
        <DataArray type="UInt8" Name="types" NumberOfComponents="1" format="ascii">
          12 12 12 12 12 12 12 12 12 12 12 12
          12 12 12 12
        </DataArray>
      </Cells>
    </Piece>
  </UnstructuredGrid>
</VTKFile>
