<?xml version="1.0"?>
<VTKFile type="UnstructuredGrid" version="0.1" byte_order="LittleEndian">
  <UnstructuredGrid>
    <Piece NumberOfCells="3800" NumberOfPoints="4620">
      <CellData Scalars="p (Pa)">
        <DataArray type="Float32" Name="p (Pa)" NumberOfComponents="1" format="ascii">
          91639.5 91639.1 91638.2 91637 91635.3 91633.4 91631.3 91629.1 91627.3 91625.8 91639.4 91639
          91638.1 91636.7 91635 91632.9 91630.6 91628.4 91626.4 91624.8 91639.2 91638.7 91637.8 91636.3
          91634.4 91632.1 91629.6 91627 91624.7 91622.9 91639 91638.4 91637.3 91635.7 91633.6 91631
          91628.2 91625.3 91622.6 91620.6 91638.7 91638.1 91636.9 91635.1 91632.8 91630 91626.8 91623.5
          91620.5 91618.1 91638.5 91637.9 91636.6 91634.7 91632.2 91629.1 91625.7 91622.1 91618.8 91616.1
          91638.4 91637.7 91636.4 91634.4 91631.8 91628.6 91625 91621.3 91617.8 91615 91638.4 91637.7
          91636.4 91634.4 91631.8 91628.6 91625 91621.3 91617.8 91614.9 91638.5 91637.8 91636.6 91634.6
          91632.1 91629.1 91625.7 91622.1 91618.8 91616 91638.6 91638 91636.9 91635.1 91632.8 91630
          91626.9 91623.6 91620.6 91618.1 91638.9 91638.4 91637.3 91635.7 91633.7 91631.2 91628.4 91625.6
          91623 91620.9 91639.2 91638.8 91637.8 91636.5 91634.7 91632.6 91630.3 91627.9 91625.8 91624
          91639.6 91639.2 91638.4 91637.2 91635.8 91634 91632.1 91630.2 91628.5 91627.2 91639.9 91639.6
          91639 91638 91636.8 91635.4 91633.9 91632.5 91631.2 91630.2 91640.3 91640 91639.5 91638.8
          91637.8 91636.7 91635.6 91634.5 91633.5 91632.8 91640.6 91640.4 91640 91639.4 91638.7 91637.9
          91637 91636.2 91635.5 91635 91640.9 91640.8 91640.4 91640 91639.4 91638.8 91638.2 91637.6
          91637.1 91636.8 91641.1 91641 91640.8 91640.4 91640 91639.5 91639.1 91638.6 91638.3 91638.1
          91641.3 91641.2 91641 91640.7 91640.4 91640 91639.6 91639.3 91639.1 91639 91641.4 91641.3
          91641.1 91640.9 91640.6 91640.2 91639.9 91639.7 91639.5 91639.4 91600.3 91599.7 91598.7 91597.1
          91595.1 91592.6 91590 91587.4 91585.1 91583.3 91600.1 91599.6 91598.5 91596.8 91594.6 91592
          91589.2 91586.4 91583.9 91582 91599.9 91599.3 91598 91596.2 91593.8 91591 91587.8 91584.6
          91581.7 91579.5 91599.6 91598.9 91597.5 91595.5 91592.8 91589.6 91586 91582.4 91579 91576.3
          91599.2 91598.5 91597 91594.8 91591.8 91588.2 91584.2 91580.1 91576.2 91573.1 91599 91598.2
          91596.6 91594.2 91591 91587.1 91582.8 91578.2 91573.9 91570.4 91598.8 91598 91596.4 91593.9
          91590.5 91586.5 91581.9 91577.1 91572.6 91568.8 91598.8 91598 91596.3 91593.8 91590.5 91586.5
          91581.9 91577.1 91572.5 91568.7 91598.9 91598.1 91596.5 91594.1 91590.9 91587.1 91582.7 91578.1
          91573.8 91570.2 91599.1 91598.4 91596.9 91594.6 91591.7 91588.2 91584.2 91580 91576.1 91572.9
          91599.4 91598.7 91597.4 91595.4 91592.8 91589.6 91586.2 91582.6 91579.2 91576.5 91599.8 91599.2
          91598 91596.3 91594 91591.4 91588.4 91585.5 91582.7 91580.5 91600.2 91599.7 91598.7 91597.2
          91595.4 91593.2 91590.8 91588.4 91586.2 91584.5 91600.6 91600.2 91599.4 91598.2 91596.7 91594.9
          91593 91591.2 91589.5 91588.3 91601.1 91600.8 91600.1 91599.1 91597.9 91596.5 91595.1 91593.7
          91592.5 91591.6 91601.5 91601.2 91600.7 91599.9 91599 91598 91596.9 91595.9 91595 91594.4
          91601.9 91601.6 91601.2 91600.6 91599.9 91599.1 91598.3 91597.6 91597 91596.6 91602.1 91602
          91601.6 91601.2 91600.6 91600 91599.5 91598.9 91598.5 91598.3 91602.3 91602.2 91601.9 91601.6
          91601.1 91600.7 91600.2 91599.8 91599.5 91599.4 91602.4 91602.3 91602.1 91601.8 91601.4 91601
          91600.6 91600.2 91600 91599.9 91560.4 91559.6 91558.1 91555.9 91553 91549.6 91545.9 91542.2
          91538.9 91536.4 91560.2 91559.4 91557.8 91555.5 91552.4 91548.7 91544.7 91540.7 91537 91534.3
          91559.8 91559 91557.2 91554.6 91551.2 91547.1 91542.6 91537.9 91533.7 91530.4 91559.4 91558.4
          91556.5 91553.6 91549.7 91545.1 91539.8 91534.5 91529.5 91525.5 91558.9 91557.9 91555.7 91552.5
          91548.2 91543 91537.1 91530.9 91525.1 91520.3 91558.5 91557.4 91555.1 91551.6 91547 91541.3
          91534.8 91528 91521.4 91516 91558.3 91557.1 91554.7 91551.1 91546.3 91540.4 91533.6 91526.3
          91519.4 91513.5 91558.2 91557 91554.7 91551.1 91546.2 91540.3 91533.5 91526.3 91519.2 91513.3
          91558.3 91557.2 91554.9 91551.4 91546.8 91541.1 91534.6 91527.8 91521.2 91515.5 91558.6 91557.5
          91555.4 91552.1 91547.9 91542.7 91536.8 91530.6 91524.7 91519.7 91559 91558 91556.1 91553.2
          91549.4 91544.8 91539.6 91534.3 91529.3 91525.2 91559.5 91558.6 91556.9 91554.4 91551.1 91547.2
          91542.9 91538.5 91534.4 91531.1 91560.1 91559.3 91557.9 91555.7 91553 91549.7 91546.2 91542.7
          91539.5 91537.1 91560.7 91560.1 91558.8 91557.1 91554.8 91552.2 91549.4 91546.7 91544.4 91542.6
          91561.3 91560.8 91559.8 91558.4 91556.6 91554.5 91552.4 91550.4 91548.7 91547.4 91561.9 91561.5
          91560.7 91559.6 91558.1 91556.6 91555 91553.5 91552.3 91551.5 91562.4 91562.1 91561.4 91560.6
          91559.5 91558.3 91557.1 91556.1 91555.2 91554.7 91562.8 91562.5 91562.1 91561.4 91560.6 91559.7
          91558.8 91558 91557.4 91557.1 91563.1 91562.9 91562.5 91561.9 91561.3 91560.6 91559.9 91559.3
          91558.9 91558.7 91563.2 91563.1 91562.7 91562.2 91561.6 91561 91560.5 91560 91559.6 91559.5
          91519.8 91518.7 91516.5 91513.2 91508.9 91503.8 91498.2 91492.6 91487.7 91484 91519.5 91518.3
          91516 91512.5 91507.9 91502.4 91496.3 91490.2 91484.7 91480.5 91518.9 91517.6 91515.1 91511.2
          91506 91499.8 91492.8 91485.8 91479.2 91474.1 91518.2 91516.8 91513.9 91509.5 91503.7 91496.5
          91488.5 91480.1 91472.2 91465.8 91517.6 91516 91512.8 91507.9 91501.3 91493.2 91484 91474.2
          91464.9 91457.1 91517 91515.3 91511.8 91506.5 91499.4 91490.6 91480.4 91469.4 91458.7 91449.6
          91516.6 91514.8 91511.2 91505.7 91498.3 91489 91478.3 91466.7 91455.2 91445.2 91516.4 91514.7
          91511.1 91505.6 91498.1 91488.9 91478.1 91466.5 91455 91444.9 91516.6 91514.8 91511.3 91506
          91498.9 91490.1 91479.9 91468.9 91458.1 91448.7 91516.9 91515.3 91512 91507.1 91500.5 91492.4
          91483.2 91473.4 91463.9 91455.7 91517.5 91516 91513 91508.5 91502.7 91495.5 91487.5 91479.2
          91471.2 91464.6 91518.1 91516.8 91514.2 91510.3 91505.2 91499.1 91492.4 91485.5 91479.2 91474
          91519 91517.8 91515.5 91512.2 91507.9 91502.8 91497.4 91491.9 91487.1 91483.3 91519.8 91518.9
          91517 91514.2 91510.6 91506.5 91502.2 91498.1 91494.4 91491.8 91520.7 91519.9 91518.4 91516.1
          91513.3 91510.1 91506.7 91503.6 91501 91499.2 91521.6 91521 91519.7 91517.9 91515.7 91513.2
          91510.7 91508.5 91506.6 91505.5 91522.4 91521.9 91520.9 91519.5 91517.8 91515.9 91514.1 91512.4
          91511.2 91510.5 91523 91522.6 91521.8 91520.8 91519.4 91518 91516.6 91515.5 91514.6 91514.2
          91523.5 91523.1 91522.5 91521.6 91520.6 91519.5 91518.4 91517.5 91516.9 91516.6 91523.7 91523.4
          91522.9 91522.1 91521.2 91520.2 91519.3 91518.5 91518 91517.8 91478.3 91476.7 91473.4 91468.5
          91462.1 91454.5 91446 91437.6 91430.1 91424.6 91477.9 91476.1 91472.6 91467.4 91460.5 91452.2
          91443 91433.7 91425.3 91418.9 91477 91475.1 91471.2 91465.4 91457.6 91448 91437.4 91426.3
          91416.2 91408.2 91476 91473.9 91469.5 91462.8 91453.9 91442.8 91430.2 91416.9 91404.3 91394
          91475 91472.6 91467.7 91460.2 91450.1 91437.5 91422.9 91407.2 91391.8 91378.8 91474.1 91471.5
          91466.2 91458.1 91447.1 91433.2 91416.9 91399.1 91381.2 91365.6 91473.4 91470.8 91465.3 91456.8
          91445.3 91430.8 91413.6 91394.5 91375.1 91357.6 91473.2 91470.5 91465 91456.5 91445 91430.5
          91413.3 91394.3 91374.8 91357.1 91473.3 91470.7 91465.4 91457.2 91446.2 91432.3 91416.1 91398.3
          91380.2 91364 91473.7 91471.3 91466.3 91458.7 91448.4 91435.8 91421.2 91405.4 91389.8 91376.1
          91474.5 91472.2 91467.6 91460.7 91451.6 91440.4 91427.7 91414.4 91401.6 91390.8 91475.4 91473.4
          91469.3 91463.2 91455.2 91445.6 91435 91424.2 91414.2 91406 91476.5 91474.8 91471.2 91466
          91459.2 91451.2 91442.6 91434 91426.4 91420.6 91477.8 91476.3 91473.3 91468.9 91463.3 91456.8
          91450 91443.4 91437.9 91433.9 91479.1 91477.9 91475.4 91471.8 91467.3 91462.2 91456.9 91452
          91448.1 91445.4 91480.4 91479.4 91477.4 91474.6 91471 91467.1 91463.1 91459.6 91456.8 91455.2
          91481.6 91480.8 91479.3 91477 91474.3 91471.3 91468.4 91465.8 91464 91462.9 91482.6 91482
          91480.8 91479 91476.9 91474.6 91472.4 91470.6 91469.3 91468.8 91483.3 91482.8 91481.8 91480.4
          91478.7 91476.9 91475.2 91473.9 91472.9 91472.6 91483.7 91483.2 91482.4 91481.1 91479.6 91478.1
          91476.6 91475.5 91474.8 91474.5 91435.9 91433.6 91428.8 91421.6 91412.2 91400.8 91388.3 91375.8
          91364.6 91356.4 91435.2 91432.7 91427.6 91419.9 91409.6 91397.2 91383.4 91369.3 91356.6 91347
          91434 91431.2 91425.5 91416.7 91405 91390.7 91374.3 91357.4 91341.6 91329.1 91432.5 91429.3
          91422.8 91412.8 91399.3 91382.3 91362.7 91341.8 91321.6 91304.9 91430.9 91427.3 91420.1 91408.8
          91393.4 91373.9 91350.8 91325.5 91300.1 91278.1 91429.5 91425.7 91417.8 91405.6 91388.7 91367.1
          91341.1 91311.9 91281.8 91254.1 91428.6 91424.6 91416.4 91403.6 91385.9 91363.2 91335.7 91304.3
          91271.1 91239.5 91428.1 91424.1 91415.9 91403.1 91385.4 91362.8 91335.4 91304.2 91270.9 91238.9
          91428.2 91424.3 91416.3 91403.9 91387 91365.5 91339.8 91310.9 91280.5 91251.9 91428.7 91425
          91417.4 91405.9 91390.2 91370.6 91347.6 91322.3 91296.6 91273.3 91429.6 91426.2 91419.2 91408.7
          91394.6 91377.2 91357.4 91336.3 91315.7 91298 91430.9 91427.8 91421.5 91412.1 91399.7 91384.8
          91368.1 91351.1 91335.3 91322.5 91432.4 91429.7 91424.2 91416 91405.4 91392.9 91379.3 91365.9
          91354.2 91345.4 91434.2 91431.9 91427.2 91420.3 91411.4 91401.2 91390.4 91380.2 91371.7 91365.9
          91436.2 91434.2 91430.3 91424.6 91417.5 91409.4 91401 91393.4 91387.5 91383.7 91438.1 91436.5
          91433.4 91428.9 91423.2 91417 91410.7 91405.2 91401.1 91398.8 91439.9 91438.7 91436.2 91432.6
          91428.3 91423.5 91418.9 91415 91412.2 91410.9 91441.4 91440.4 91438.5 91435.7 91432.4 91428.8
          91425.3 91422.5 91420.6 91419.9 91442.5 91441.7 91440.1 91437.9 91435.2 91432.4 91429.7 91427.6
          91426.3 91425.9 91443.1 91442.4 91441 91439 91436.7 91434.2 91432 91430.2 91429.1 91428.9
          91392.5 91389.1 91382.4 91372.1 91358.6 91342.1 91323.9 91305.6 91289.4 91277.5 91391.5 91387.9
          91380.6 91369.5 91354.7 91336.5 91316.1 91295.3 91276.4 91262.2 91389.7 91385.7 91377.4 91364.8
          91347.6 91326.3 91301.7 91275.8 91251.6 91232.5 91387.5 91382.9 91373.5 91358.8 91338.7 91313.1
          91283 91250.1 91218 91191.1 91385.2 91380 91369.4 91352.8 91329.7 91299.8 91263.6 91222.9
          91181 91143.3 91383.2 91377.6 91366.1 91347.9 91322.5 91289.1 91248 91200.2 91148.7 91098.6
          91381.8 91375.9 91363.9 91344.9 91318.3 91283.3 91239.6 91187.9 91130.2 91070.6 91381 91375.1
          91363 91344.1 91317.5 91282.8 91239.6 91188.5 91130.9 91070.5 91381 91375.2 91363.4 91345.1
          91319.7 91286.8 91246.6 91199.9 91148.6 91096.7 91381.5 91376 91364.8 91347.6 91324 91294
          91258.3 91218.1 91176 91136 91382.6 91377.5 91367.1 91351.2 91329.8 91303.2 91272.4 91239.2
          91206.4 91177.6 91384.2 91379.5 91370 91355.7 91336.8 91313.6 91287.7 91261 91236.4 91216.7
          91386.2 91382 91373.6 91361.1 91344.7 91325.1 91303.8 91282.8 91264.8 91252 91388.7 91385.1
          91377.8 91367.1 91353.3 91337.2 91320.3 91304.3 91291.5 91283.3 91391.5 91388.4 91382.4 91373.5
          91362.3 91349.5 91336.4 91324.6 91315.7 91310.7 91394.3 91391.8 91386.9 91379.9 91371 91361.2
          91351.3 91342.8 91336.7 91333.8 91397 91395 91391.1 91385.6 91378.8 91371.4 91364.1 91358.1
          91354 91352.4 91399.2 91397.7 91394.6 91390.3 91385.1 91379.5 91374.2 91369.9 91367.2 91366.3
          91400.8 91399.6 91397.1 91393.7 91389.5 91385.2 91381.1 91377.9 91376 91375.6 91401.7 91400.6
          91398.4 91395.4 91391.8 91388 91384.6 91381.9 91380.4 91380.1 91348.1 91343.5 91334.2 91320
          91301 91277.9 91252 91225.8 91202.7 91186.1 91346.7 91341.7 91331.6 91316.2 91295.2 91269.3
          91239.8 91209.4 91182 91161.6 91344.2 91338.6 91327.1 91309.2 91284.6 91253.5 91217 91178.2
          91141.6 91113 91341 91334.6 91321.3 91300.4 91271.1 91233.1 91187.1 91135.9 91085.1 91042.1
          91337.8 91330.5 91315.5 91291.5 91257.5 91212.2 91155.7 91090 91020.3 90955.4 91334.9 91327
          91310.6 91284.3 91246.6 91195.8 91130.7 91051.8 90962.3 90869.2 91332.9 91324.6 91307.4 91279.9
          91240.5 91187.3 91118.4 91033 90930.9 90812.6 91331.7 91323.3 91306 91278.6 91239.5 91187
          91119.7 91036.2 90935.3 90815.7 91331.3 91323.1 91306.2 91279.7 91242.3 91193 91131.1 91056.3
          90969.4 90872.6 91331.8 91323.9 91307.8 91282.6 91247.8 91202.8 91148 91084.8 91016.1 90946.9
          91332.9 91325.5 91310.3 91286.9 91255 91214.7 91167.2 91115.3 91063.4 91017.3 91334.8 91327.9
          91313.9 91292.6 91263.8 91228.3 91187.8 91146 91107.8 91078.5 91337.4 91331.2 91318.6 91299.6
          91274.4 91243.9 91210.3 91177.3 91149.8 91131.9 91340.7 91335.3 91324.4 91308 91286.7 91261.4
          91234.5 91209.4 91190.1 91179.5 91344.6 91340 91330.8 91317.2 91299.9 91279.8 91259.1 91240.6
          91227.4 91221.3 91348.6 91344.8 91337.4 91326.6 91312.9 91297.5 91282.1 91268.9 91260.1 91256.8
          91352.4 91349.5 91343.6 91335.2 91324.7 91313.2 91302 91292.7 91286.9 91285.2 91355.7 91353.4
          91348.8 91342.3 91334.3 91325.7 91317.6 91311.1 91307.2 91306.5 91358.1 91356.2 91352.5 91347.3
          91341 91334.4 91328.2 91323.5 91320.8 91320.5 91359.4 91357.7 91354.4 91349.9 91344.5 91338.8
          91333.6 91329.7 91327.5 91327.5 91302.8 91296.7 91284.4 91265.4 91239.7 91208 91172.2 91135.8
          91103.7 91081.4 91300.9 91294.3 91280.8 91259.9 91231.3 91195.3 91153.6 91110.3 91071.2 91043.1
          91297.5 91290 91274.4 91250 91215.7 91171.3 91118.2 91060.5 91005.9 90964.3 91293.2 91284.5
          91266.4 91237.3 91195.7 91140 91070.4 90990.5 90909.9 90842.8 91288.8 91278.9 91258.1 91224.6
          91175.4 91107.7 91019.2 90911.4 90793 90681.8 91284.9 91274.1 91251.3 91214.2 91159.5 91082.5
          90978.9 90845.4 90683.9 90506 91281.9 91270.6 91246.8 91208.1 91151 91071 90962.7 90820.2
          90635 90386.1 91280.1 91268.6 91244.6 91206 91149.8 91072 90968.3 90832.6 90653.9 90403.1
          91279.3 91268 91244.5 91207 91153.4 91080.9 90986.9 90868.8 90722 90537.6 91279.4 91268.4
          91245.8 91210 91159.6 91093.2 91010.2 90911.8 90800.7 90681.4 91280.4 91269.9 91248.3 91214.6
          91167.7 91107.1 91034 90952.7 90871 90798.7 91282.5 91272.6 91252.4 91221 91177.9 91123.3
          91059.5 90992.4 90932.4 90891.2 91285.7 91276.6 91258.2 91229.9 91191.5 91143.8 91089.8 91036
          90992.9 90970.7 91290 91282 91265.8 91241.2 91208.4 91168.7 91125.4 91084.7 91055 91043.2
          91295.1 91288.4 91274.7 91254.3 91227.6 91196.1 91163.1 91133.7 91114 91107.8 91300.7 91295.2
          91284.2 91267.8 91247 91223.1 91198.9 91178.4 91165.6 91162.6 91306.1 91301.7 91293.1 91280.5
          91264.6 91247 91229.8 91215.7 91207.5 91206.2 91310.8 91307.3 91300.6 91290.9 91279 91266.1
          91253.8 91244.2 91238.8 91238.4 91314.2 91311.4 91306 91298.4 91289.1 91279.2 91270.1 91263.1
          91259.5 91259.5 91315.9 91313.5 91308.8 91302.2 91294.3 91285.9 91278.3 91272.6 91269.7 91270
          91257 91249.2 91233.5 91209 91175.5 91133.6 91085.6 91036.3 90993.1 90964.2 91254.5 91246.1
          91228.7 91201.5 91163.7 91115.2 91058 90997.5 90943.1 90905.9 91250.1 91240.4 91220.1 91187.8
          91141.5 91080 91003.9 90918.9 90838.2 90780.4 91244.5 91233.1 91209.2 91170.2 91112.7 91032.6
          90927.6 90801.3 90671.3 90570.8 91238.6 91225.6 91198 91152.3 91083 90982.6 90842.3 90657.9
          90444.1 90258 91233.4 91219.1 91188.7 91138 91060 90944.3 90775.2 90533.6 90206.5 89860.4
          91229.3 91214.3 91182.4 91129.6 91049 90930.5 90759.5 90515.6 90165.7 89609.4 91226.6 91211.4
          91179.2 91126.6 91047.9 90935.2 90777.6 90558.6 90240.9 89688.3 91225 91209.9 91178.3 91127.1
          91052.1 90948 90808.2 90624.8 90381.6 90031.3 91224.5 91209.7 91178.8 91129.4 91058.1 90961.6
          90837.3 90685.3 90508.5 90308.2 91225.2 91210.8 91180.8 91133.2 91065.2 90974.6 90861.4 90731.4
          90600.8 90493.7 91227.2 91213.4 91184.8 91139.6 91075.5 90990.9 90887.3 90773.3 90672.5 90623.7
          91230.9 91218.1 91191.6 91150 91091.8 91016.3 90926.2 90832 90757.7 90739.4 91236.2 91224.8
          91201.4 91165 91114.9 91051.9 90980.1 90910.1 90861.3 90854 91243 91233.3 91213.5 91183.2
          91142.5 91093.2 91039.7 90991.1 90960.5 90957.7 91250.5 91242.6 91226.6 91202.6 91171.1 91134.3
          91096.3 91063.8 91044.9 91044.2 91257.9 91251.7 91239.2 91220.8 91197.3 91170.7 91144.4 91122.9
          91111.2 91111.5 91264.3 91259.4 91249.8 91235.9 91218.5 91199.4 91181.1 91166.9 91159.5 91160.2
          91269 91265.1 91257.5 91246.6 91233.2 91218.9 91205.7 91195.6 91190.7 91191.6 91271.5 91268.1
          91261.4 91252.1 91240.8 91228.8 91217.9 91209.8 91206 91206.9 91211 91201.6 91182.3 91152.1
          91110.3 91057.1 90995.1 90930.7 90874.4 90838.4 91207.9 91197.6 91176.2 91142.3 91094.4 91031.6
          90955.7 90873.7 90799.8 90752.7 91202.4 91190.4 91165.1 91124.2 91064.3 90981.9 90875.6 90751.8
          90632.5 90556.9 91195.3 91181.1 91150.9 91100.8 91024.2 90912.3 90755.3 90550.9 90329.3 90188.2
          91187.8 91171.5 91136.3 91076.6 90982.1 90835.3 90608.4 90266.2 89810 89511.5 91181.1 91163
          91124 91057.2 90949.5 90776 90486.3 89972.7 88970.7 88255.7 91175.7 91156.7 91115.8 91046.2
          90936 90763.6 90490.9 90051.8 89325.1 87946 91171.8 91152.5 91111.1 91042.1 90935.7 90776.9
          90541.8 90192.1 89634.4 88332.5 91169.2 91149.8 91108.7 91041.2 90939.8 90794.3 90591.4 90313.7
          89927.3 89301.4 91167.8 91148.4 91107.6 91041.3 90943.1 90805.5 90621 90386.6 90109.2 89796.5
          91167.6 91148.4 91108.1 91042.5 90945.8 90810.7 90631.5 90412.2 90188.4 90051.2 91169.3 91150.6
          91111.2 91047.3 90952.8 90820.4 90642.9 90423.7 90210.7 90200.5 91173.3 91155.6 91118.6 91058.7
          90971 90849.5 90690 90499.8 90330.7 90368.6 91179.8 91163.9 91130.8 91077.9 91002.1 90901
          90776.6 90644.2 90549 90570.1 91188.4 91174.8 91146.8 91102.8 91041.8 90964.2 90875.3 90790.5
          90738.5 90749.3 91198.2 91187.2 91164.6 91130 91083.5 91027.2 90966.9 90914 90884.9 90891.2
          91208 91199.3 91181.9 91155.7 91121.6 91082.1 91042 91009.2 90992.5 90996.6 91216.5 91209.8
          91196.5 91177 91152.3 91124.6 91097.9 91077.1 91067.1 91070.1 91222.8 91217.4 91207 91191.9
          91173.4 91153.2 91134.4 91120.2 91113.8 91116.1 91226 91221.4 91212.5 91199.6 91184.1 91167.5
          91152.3 91141.1 91136.2 91138.3 91165.2 91154.3 91131.7 91096.1 91046.4 90982.3 90906.2 90825.9
          90755.3 90712 91161.6 91149.5 91124.3 91084.1 91026.4 90949.4 90853.8 90747.3 90649.8 90592.5
          91154.9 91140.7 91110.8 91061.6 90988.1 90883.6 90742.4 90567.4 90390 90295.4 91146.3 91129.4
          91093.2 91032 90935.7 90787.2 90560.6 90226.5 89804.7 89615.3 91137.1 91117.6 91075 91001
          90878.8 90672.9 90305.1 89597.2 88185.2 87702.6 91128.8 91107.1 91059.5 90975.9 90833.9 90579
          90044.4 88509.3 80164.2 78295.9 91122 91099 91048.8 90961.9 90818.4 90576.6 90141 89283.2
          87450.9 85111.6 91116.7 91093.1 91042.2 90955.8 90818.9 90604.6 90265.7 89721 88822.1 87026.4
          91112.8 91088.8 91037.6 90952.2 90820.8 90625.4 90340.6 89933.9 89365.3 88517.1 91110 91085.7
          91033.9 90948 90817.2 90626 90355 89990.1 89550.9 89137.8 91108.7 91084.1 91031.5 90944
          90809.6 90609.6 90317.8 89910.8 89440.8 89354.2 91109.7 91085.2 91032.7 90944.8 90807.8 90597.8
          90271.5 89749.5 88921.9 89386 91113.8 91090.3 91040 90955.9 90825.4 90627 90322.6 89844.5
          89112.1 89648.6 91121.4 91100 91054.5 90979.6 90866.5 90703.1 90477.3 90192.4 89936 90097
          91132 91113.6 91075.1 91013 90922.9 90801.1 90650 90491 90386.8 90444.4 91144.4 91129.5
          91098.7 91050.3 90983.1 90897.8 90801.4 90712.5 90664.4 90689.4 91156.9 91145.3 91121.7 91085.7
          91037.6 90979.9 90919.5 90868.7 90844.4 90857 91167.9 91159 91141.2 91114.8 91080.7 91041.8
          91003.4 90973.3 90959.9 90967.1 91175.9 91168.9 91155.2 91135.1 91110.1 91082.5 91056.5 91037
          91028.8 91033.6 91180.1 91174.1 91162.4 91145.5 91124.8 91102.5 91082 91067.1 91061.1 91064.8
          91119.9 91107.7 91082.4 91042.5 90986.5 90913.6 90826.2 90732.2 90648.3 90596.8 91115.7 91102.1
          91073.9 91028.6 90963.3 90875 90763.4 90635.5 90514 90444.4 91107.9 91092 91058.2 91002.5
          90918.4 90796.6 90626.1 90401.1 90146.9 90022.3 91097.8 91078.8 91037.8 90967.8 90856 90677.9
          90385.7 89884.1 88964.5 88640.4 91087.1 91064.9 91016.3 90931 90786.3 90527 89985.2 88442.2
          80091 78841.3 91077.2 91052.4 90997.7 90900.3 90728.7 90384.8 89335.9 80854.1 -1.32241e+06 -1.35682e+06
          91068.9 91042.3 90984.3 90882.5 90710 90400.4 89749.3 87902.8 78419 71122.9 91062.2 91034.7
          90975.1 90872.9 90707.8 90440.1 89986.4 89165.2 87525.8 84921.3 91056.8 91028.4 90967.5 90864.6
          90703.1 90455.4 90076.5 89501 88658.4 87543.4 91052.5 91023.2 90960.1 90853.8 90687.1 90432
          90044.2 89468.4 88708.4 88204.9 91049.8 91019.5 90953.9 90841.9 90662.1 90373.3 89891.6 89047
          87575.8 88065.3 91049.8 91019 90951.9 90835.6 90643.1 90312.3 89664.9 87962.4 79664.4 87179.2
          91053.8 91023.8 90958.2 90844.4 90655.6 90332.1 89705.1 88069.4 80118.4 87751.9 91062.4 91034.7
          90974.8 90872.1 90707.1 90444 90017.4 89312.2 88196.6 89200.4 91075 91051.2 91000.3 90915.5
          90785.7 90596.3 90334.9 90013.4 89746.3 89973.8 91090.2 91070.9 91030.5 90965.2 90870.7 90743.9
          90590 90434.9 90345.4 90420.3 91105.6 91090.7 91060.1 91012.3 90946.6 90864.8 90774.9 90696.1
          90659.4 90689.9 91119.1 91107.9 91085.1 91050.8 91005.6 90952.6 90898.9 90856 90838.3 90853
          91129 91120.3 91102.9 91077.4 91044.9 91008.7 90974 90948 90937.9 90946.3 91134.2 91126.8
          91112.1 91090.9 91064.5 91035.8 91009.2 90990 90982.8 90988.9 91074.8 91061.6 91034.4 90991.6
          90931.6 90853.7 90760 90658.3 90565.4 90504.8 91070 91055.4 91025 90976.5 90906.8 90812.9
          90694.5 90558.3 90426.4 90340.5 91061.2 91044 91007.6 90948.1 90858.8 90731 90554.7 90326.8
          90072.4 89890.4 91049.8 91029.2 90985 90910.4 90792.8 90610.2 90324.8 89880.8 89222.4 88455
          91037.6 91013.5 90961.1 90870.2 90719.7 90464.3 89997 89049.5 86817 78425.7 91026.3 90999.2
          90939.9 90835.7 90658.3 90336.1 89640.7 87559 75378.2 -1.3568e+06 91016.6 90987.4 90923.7 90812.9
          90628 90307 89674.3 87957.9 77473.5 -1.35306e+06 91008.7 90978 90911.5 90797.7 90614.2 90317.1
          89812 88859 86564.6 76017.4 91002.1 90969.9 90900.6 90783 90596.7 90306.2 89848.1 89111.5
          87917.1 86091.3 90996.5 90962.6 90889.4 90764.4 90564.1 90245.8 89727 88850.7 87339 86760
          90992.6 90956.9 90879 90743.2 90517.1 90127 89367.2 87442.3 78282.1 85099.5 90991.7 90954.8
          90873.3 90727.8 90473.3 89978.4 88584.6 79068.7 -1.34668e+06 74830.7 90995.5 90958.9 90877.6 90731.3
          90472.4 89967.1 88569.3 79056.3 -1.35476e+06 78307 91004.9 90970.8 90895.4 90760.8 90528.4 90109.8
          89267.2 87131.6 77541.1 87098.5 91019.5 90990 90925.9 90814.8 90634.1 90344.6 89884.7 89170.1
          88132.6 89198.3 91037.2 91013.5 90962.9 90878.7 90750.9 90567.7 90323.6 90043.1 89844.5 90065
          91055.5 91037.3 90999.4 90939.1 90853.2 90741.3 90611.3 90490 90432.5 90499.6 91071.4 91057.9
          91030.2 90987.7 90930.5 90861.5 90789.3 90730.3 90707.4 90734 91083.2 91072.8 91051.9 91020.9
          90980.9 90935.5 90891.2 90858 90846.1 90859.5 91089.3 91080.5 91063 91037.5 91005.6 90970.5
          90937.6 90914 90905.8 90914.9 91029.4 91015.5 90986.9 90942.3 90880.4 90800.7 90705.2 90601
          90503.1 90433.6 91024 91008.6 90976.6 90926.3 90854.8 90759.9 90641.4 90505.3 90370.2 90271.9
          91014 90995.8 90957.8 90896.2 90805.8 90679.2 90508.9 90293 90051.4 89855.9 91001.2 90979.5
          90933.2 90856.6 90739.1 90563.5 90302.7 89921.4 89398.3 88834.1 90987.7 90962.1 90907.2 90814.3
          90666 90429 90035.5 89346.6 88096.6 85897.3 90975.1 90946.3 90884 90777.1 90602.8 90311.4
          89780.1 88649.4 85655.6 72290.1 90964.6 90933.3 90865.6 90750 90562.9 90255.4 89713.4 88615.7
          85790.6 72967.3 90956.1 90922.8 90851.2 90729.7 90536.4 90230.3 89728.3 88845.2 87111.1 83120.8
          90949 90913.8 90838 90709.4 90506 90188.2 89684 88860.2 87490 85399.2 90943 90905.5
          90824.2 90684.6 90459.5 90096.6 89491.1 88414.8 86341.5 84248.1 90938.6 90898.6 90810.8 90656.4
          90396 89940.9 89041.1 86695.9 75607.8 71581.7 90937.4 90895.5 90802 90632.9 90331.7 89740.4
          88111.8 77607.9 -1.35748e+06 -1.35852e+06 90941.2 90899.1 90804.1 90628.5 90305.9 89657.4 88089.1 83620.8
          64666 73453.9 90951.4 90911.7 90822.1 90655 90341.3 89671.4 87738.2 76345.8 -1.3319e+06 78496.5
          90967.6 90933.3 90856.9 90719.3 90479.3 90045.3 89201.2 87249.8 79875.2 87804 90987.6 90960.1
          90900.3 90797.9 90634.6 90381.6 90002.5 89473.3 88935.4 89639.2 91008.1 90987.2 90943.1 90871.3
          90765.8 90621.6 90443.3 90263.4 90177.4 90311.8 91026.1 91010.7 90978.9 90929.3 90861.3 90777.1
          90685.9 90609.6 90582.7 90625.5 91039.3 91027.6 91003.9 90968.4 90922.1 90868.6 90815.7 90775.9
          90763 90782 91046.2 91036.3 91016.7 90987.8 90951.3 90910.9 90872.8 90845.5 90836.8 90848.8
          90982.8 90968.1 90938.2 90892.3 90829.5 90749.8 90655.3 90551.8 90451.5 90373.1 90976.5 90960.3
          90926.9 90875 90802.9 90709 90593.6 90461 90324.8 90213.3 90965.1 90945.9 90906 90842.8
          90752.2 90629 90467.2 90262.6 90021.3 89784.6 90950.6 90927.5 90879 90800.5 90683.8 90515.8
          90274.1 89918.2 89369.4 88447.6 90935.5 90908.3 90850.7 90755.4 90609 90385.3 90025.5 89359.5
          87652.7 78869.4 90922.1 90891.3 90825.6 90715.8 90543.2 90268 89775.2 88471.6 79090.7 -1.3564e+06
          90911.4 90877.9 90806.4 90686.4 90498 90200.9 89700 88704.4 85989.9 71384.6 90903.4 90867.9
          90791.8 90664.2 90464.6 90154.9 89655.7 88765 86655.1 74883.2 90897.3 90859.6 90778.8 90642.3
          90427.4 90092.3 89554.8 88632.2 86859.1 82924.1 90892.4 90852.2 90765.3 90616 90375 89985.1
          89322.4 88047.9 84892.4 71173.8 90888.9 90846.1 90751.9 90585.9 90306.2 89823.5 88913.2 86699.2
          74802.8 -1.35915e+06 90888.5 90843.5 90742.6 90558.8 90230.8 89609.2 88270.9 84747.7 68248.6 -1.35968e+06
          90893.2 90847.6 90743.8 90547.6 90170.8 89341.7 86982.4 75386.7 54617.9 72490.2 90904.3 90861.1
          90761.8 90568.9 90163 88923 79714.8 -1.35287e+06 -1.35823e+06 77115.3 90921.8 90884.4 90800 90642.9
          90348.6 89725.5 87990.5 79087.6 77989.2 87291.4 90943.3 90913.4 90848 90733.4 90543 90225.2
          89679.8 88688.9 88474.3 89421.4 90965.2 90942.8 90895 90816 90697.3 90529.3 90310.2 90076.9
          90020.8 90198.1 90984.4 90967.9 90933.8 90880.2 90805.6 90711.6 90607.9 90520.8 90497.9 90551.6
          90998.4 90985.9 90960.8 90922.8 90872.9 90814.9 90757.1 90713.9 90701.7 90724.4 91005.7 90995.3
          90974.5 90943.9 90905 90861.7 90820.9 90791.9 90783.4 90797.2 90934.1 90918.4 90886.7 90838.9
          90774.8 90695.4 90603 90502.5 90402.7 90317.4 90926.7 90909.2 90873.6 90819.3 90745.7 90652.8
          90541.9 90416.8 90287.3 90173.5 90913.3 90892.3 90849.4 90782.8 90690.3 90569.6 90418.4 90234.8
          90025.2 89821.1 90896.4 90870.9 90818.2 90734.8 90615.4 90452.7 90234.2 89937.6 89535 89036.3
          90879.2 90849.1 90786 90684.2 90534 90319.3 90006.5 89513.8 88647.3 86954.2 90865 90830.9
          90759.1 90641.5 90464 90200.3 89788.5 89028.1 87070.7 77087.4 90855.1 90818.5 90740.9 90613
          90418.4 90126.9 89674.2 88897.2 87346.5 83578.1 90849.3 90811 90729.6 90594.6 90387.5 90074.1
          89585.1 88755.3 87124.3 83113.5 90846.2 90806.3 90721.1 90578 90354.3 90006.1 89438 88381.9
          85753.7 73476 90844.5 90802.7 90712.3 90557.5 90307.4 89898 89162.2 87334.3 76345.5 -1.35907e+06
          90844 90800 90703.3 90533.1 90246 89747.5 88789.9 86364.5 73405.9 -1.36084e+06 90846.1 90800.3
          90697.8 90511.1 90177.9 89544.1 88166.7 84495 67791.2 66481.2 90852.6 90806.6 90701.8 90504
          90123.4 89277.3 86763.2 72755.7 -1.36067e+06 73241.4 90865.1 90821.7 90722 90528.5 90121.5 88877.8
          79646.5 -1.35563e+06 -1.35019e+06 77863.4 90883.5 90846 90761.6 90604.6 90311 89691.6 87978.2 79260.8
          78900.6 87522.5 90905.4 90875.6 90810.3 90696.2 90506.9 90192.8 89659.9 88717.8 88617.6 89466.3
          90927.6 90905.2 90857.6 90779.2 90661.5 90495.9 90282.5 90061.9 90023.4 90188.4 90946.8 90930.5
          90896.6 90843.4 90769.6 90677 90575.9 90492.7 90473.7 90525.2 90960.8 90948.5 90923.6 90886
          90836.7 90779.6 90723 90681.3 90670.3 90692.5 90968.1 90957.8 90937.3 90907 90868.6 90826
          90786 90757.8 90749.8 90763.5 90883 90865.8 90831.2 90779.9 90712.7 90632.1 90541.1 90443.6
          90345.1 90252.9 90874 90854.4 90815.1 90756.1 90678.2 90583.7 90475.9 90358.6 90237.3 90122.4
          90857.6 90833.7 90785.1 90711 90611.4 90488.1 90344 90180.6 90002 89821.6 90837.2 90807.5