<?xml version="1.0"?>
<VTKFile type="UnstructuredGrid" version="0.1" byte_order="LittleEndian">
  <UnstructuredGrid>
    <Piece NumberOfCells="3800" NumberOfPoints="4620">
      <CellData Scalars="p (Pa)">
        <DataArray type="Float32" Name="p (Pa)" NumberOfComponents="1" format="ascii">
          91625 91625 91625.6 91627 91628.7 91630.6 91632.5 91634 91635.2 91635.8 91623.9 91623.8
          91624.5 91625.9 91627.8 91629.8 91631.8 91633.4 91634.7 91635.3 91621.9 91621.7 91622.5 91624
          91626 91628.3 91630.5 91632.3 91633.7 91634.4 91619.3 91619 91619.8 91621.5 91623.8 91626.3
          91628.8 91630.9 91632.4 91633.2 91616.6 91616.2 91617 91618.9 91621.4 91624.2 91627 91629.3
          91631 91631.9 91614.4 91613.9 91614.7 91616.6 91619.3 91622.4 91625.4 91627.9 91629.7 91630.7
          91613.1 91612.5 91613.3 91615.2 91618 91621.1 91624.2 91626.8 91628.7 91629.7 91613 91612.4
          91613.1 91614.9 91617.6 91620.7 91623.7 91626.3 91628.1 91629.1 91614.2 91613.5 91614.1 91615.9
          91618.3 91621.2 91624 91626.4 91628.1 91629.1 91616.5 91615.9 91616.4 91617.8 91620 91622.5
          91625 91627.2 91628.7 91629.6 91619.5 91619 91619.4 91620.6 91622.4 91624.6 91626.7 91628.5
          91629.8 91630.5 91622.9 91622.5 91622.8 91623.8 91625.3 91627 91628.7 91630.2 91631.3 91631.9
          91626.3 91626 91626.3 91627.1 91628.3 91629.6 91631 91632.1 91633 91633.4 91629.6 91629.4
          91629.6 91630.3 91631.2 91632.2 91633.2 91634.1 91634.7 91635 91632.4 91632.3 91632.5 91633
          91633.7 91634.5 91635.2 91635.9 91636.3 91636.6 91634.8 91634.8 91635 91635.3 91635.9 91636.4
          91636.9 91637.4 91637.8 91637.9 91636.7 91636.7 91636.9 91637.2 91637.5 91637.9 91638.3 91638.7
          91638.9 91639 91638 91638.1 91638.2 91638.5 91638.8 91639.1 91639.4 91639.6 91639.8 91639.9
          91638.9 91639 91639.1 91639.3 91639.6 91639.8 91640 91640.2 91640.3 91640.4 91639.4 91639.4
          91639.6 91639.8 91640 91640.2 91640.4 91640.5 91640.6 91640.7 91582.3 91582.3 91583.2 91584.8
          91587 91589.4 91591.7 91593.6 91595 91595.8 91580.9 91580.8 91581.7 91583.4 91585.8 91588.3
          91590.8 91592.9 91594.4 91595.2 91578.2 91578 91579 91580.9 91583.5 91586.4 91589.1 91591.5
          91593.2 91594 91574.7 91574.4 91575.4 91577.6 91580.6 91583.8 91587 91589.6 91591.5 91592.5
          91571.1 91570.6 91571.7 91574.1 91577.4 91581.1 91584.6 91587.6 91589.7 91590.8 91568.1 91567.5
          91568.6 91571.1 91574.7 91578.7 91582.5 91585.7 91588 91589.2 91566.3 91565.6 91566.6 91569.2
          91572.9 91577 91580.9 91584.3 91586.7 91587.9 91566.2 91565.4 91566.3 91568.8 91572.3 91576.4
          91580.2 91583.5 91585.9 91587.1 91567.8 91566.9 91567.7 91570 91573.2 91576.9 91580.5 91583.6
          91585.8 91587 91570.7 91569.9 91570.6 91572.6 91575.4 91578.6 91581.8 91584.6 91586.5 91587.6
          91574.7 91574 91574.6 91576.2 91578.5 91581.2 91583.9 91586.2 91587.9 91588.8 91579 91578.5
          91579 91580.3 91582.2 91584.3 91586.5 91588.4 91589.7 91590.4 91583.4 91583.1 91583.5 91584.5
          91586 91587.7 91589.3 91590.8 91591.8 91592.4 91587.5 91587.3 91587.7 91588.5 91589.6 91590.9
          91592.1 91593.2 91594 91594.4 91591.1 91591 91591.4 91592 91592.8 91593.8 91594.7 91595.5
          91596.1 91596.4 91594.1 91594.1 91594.4 91594.9 91595.5 91596.2 91596.9 91597.5 91597.9 91598.1
          91596.5 91596.5 91596.8 91597.2 91597.6 91598.2 91598.6 91599.1 91599.4 91599.5 91598.2 91598.3
          91598.5 91598.8 91599.2 91599.6 91599.9 91600.2 91600.5 91600.6 91599.3 91599.4 91599.6 91599.9
          91600.2 91600.5 91600.8 91601 91601.2 91601.3 91599.9 91600 91600.2 91600.4 91600.7 91601
          91601.2 91601.4 91601.5 91601.6 91535 91535 91536.3 91538.8 91541.9 91545.3 91548.6 91551.3
          91553.3 91554.3 91532.7 91532.7 91534 91536.7 91540.1 91543.8 91547.3 91550.2 91552.4 91553.4
          91528.5 91528.3 91529.8 91532.7 91536.6 91540.8 91544.8 91548.2 91550.5 91551.8 91523.1 91522.6
          91524.3 91527.6 91532.1 91536.9 91541.5 91545.4 91548.1 91549.6 91517.3 91516.6 91518.4 91522.1
          91527.2 91532.7 91538 91542.3 91545.4 91547 91512.5 91511.5 91513.2 91517.3 91522.9 91528.9
          91534.7 91539.5 91542.8 91544.6 91509.5 91508.3 91510 91514.2 91519.9 91526.2 91532.2 91537.2
          91540.7 91542.6 91509.3 91507.9 91509.5 91513.5 91519 91525.2 91531.1 91536 91539.5 91541.3
          91511.7 91510.4 91511.7 91515.3 91520.3 91526 91531.4 91536 91539.3 91541 91516.4 91515.2
          91516.2 91519.2 91523.6 91528.5 91533.2 91537.2 91540.2 91541.7 91522.4 91521.4 91522.3 91524.7
          91528.3 91532.3 91536.2 91539.6 91542 91543.3 91529 91528.3 91529 91530.9 91533.7 91536.9
          91540 91542.7 91544.7 91545.7 91535.5 91535.1 91535.7 91537.2 91539.3 91541.8 91544.2 91546.2
          91547.8 91548.6 91541.5 91541.3 91541.9 91543 91544.7 91546.5 91548.3 91549.8 91551 91551.6
          91546.8 91546.7 91547.2 91548.1 91549.4 91550.7 91552 91553.2 91554 91554.4 91551.1 91551.2
          91551.6 91552.4 91553.3 91554.3 91555.2 91556.1 91556.7 91557 91554.5 91554.7 91555.1 91555.7
          91556.4 91557.1 91557.8 91558.4 91558.8 91559 91557 91557.2 91557.6 91558.1 91558.6 91559.2
          91559.7 91560.1 91560.4 91560.6 91558.7 91558.9 91559.2 91559.6 91560.1 91560.5 91560.9 91561.2
          91561.5 91561.6 91559.5 91559.7 91560 91560.4 91560.8 91561.2 91561.5 91561.8 91562 91562.1
          91482 91482.1 91484.2 91488 91492.8 91497.9 91502.8 91506.9 91509.7 91511.2 91478.2 91478.2
          91480.5 91484.6 91489.8 91495.4 91500.7 91505.1 91508.3 91509.9 91471.2 91471 91473.5 91478.2
          91484.2 91490.8 91496.9 91501.9 91505.5 91507.3 91462 91461.4 91464.1 91469.7 91476.8 91484.5
          91491.7 91497.6 91501.7 91503.9 91452.1 91451 91454.1 91460.4 91468.8 91477.7 91485.9 91492.7
          91497.5 91499.9 91443.6 91442 91445.1 91452.1 91461.5 91471.4 91480.6 91488.1 91493.3 91496
          91438.4 91436.3 91439.4 91446.7 91456.4 91466.8 91476.5 91484.3 91489.9 91492.7 91437.9 91435.5
          91438.3 91445.3 91454.8 91464.9 91474.4 91482.2 91487.7 91490.5 91442.2 91439.9 91442.2 91448.3
          91456.8 91466 91474.7 91481.9 91487.1 91489.7 91450.1 91448.1 91449.9 91455 91462.1 91469.9
          91477.4 91483.7 91488.3 91490.6 91460.1 91458.5 91459.9 91463.9 91469.6 91475.9 91482.1 91487.3
          91491.1 91493 91470.7 91469.6 91470.8 91473.9 91478.3 91483.2 91488 91492.1 91495.1 91496.7
          91481 91480.3 91481.4 91483.8 91487.1 91490.8 91494.4 91497.6 91499.9 91501.1 91490.3 91490
          91491 91492.9 91495.4 91498.1 91500.8 91503.1 91504.8 91505.8 91498.3 91498.4 91499.2 91500.7
          91502.6 91504.7 91506.6 91508.3 91509.6 91510.2 91505 91505.2 91506 91507.2 91508.6 91510.2
          91511.6 91512.8 91513.7 91514.1 91510.3 91510.6 91511.3 91512.2 91513.4 91514.5 91515.5 91516.4
          91517 91517.3 91514.1 91514.5 91515.1 91515.9 91516.8 91517.6 91518.4 91519 91519.5 91519.7
          91516.7 91517 91517.6 91518.3 91519 91519.7 91520.3 91520.8 91521.1 91521.3 91517.9 91518.3
          91518.8 91519.4 91520.1 91520.7 91521.2 91521.6 91521.9 91522.1 91421.7 91422 91425.5 91431.4
          91438.7 91446.5 91453.8 91459.8 91464 91466.2 91415.5 91415.6 91419.3 91425.8 91434 91442.6
          91450.6 91457.2 91461.8 91464.2 91403.6 91403.4 91407.6 91415.2 91424.9 91435.1 91444.5 91452.1
          91457.5 91460.3 91387.8 91386.9 91391.7 91400.9 91412.7 91425 91436.2 91445.3 91451.7 91454.9
          91370.3 91368.5 91373.9 91385 91399.1 91413.7 91426.9 91437.6 91444.9 91448.7 91354.8 91351.8
          91357.7 91370.4 91386.6 91403.2 91418.1 91430 91438.2 91442.4 91345.2 91341 91346.9 91360.5
          91377.7 91395.3 91411.1 91423.7 91432.4 91436.9 91344.3 91339.7 91345 91357.9 91374.7 91391.9
          91407.4 91419.9 91428.6 91433 91352.3 91347.9 91352.2 91363.3 91378 91393.5 91407.6 91419.1
          91427.3 91431.5 91366.4 91362.8 91366.1 91374.9 91386.8 91399.6 91411.6 91421.6 91428.8 91432.5
          91383.4 91380.8 91383.3 91389.9 91399.1 91409.2 91418.9 91427 91432.9 91436.1 91400.8 91399.2
          91401.2 91406.2 91413.1 91420.7 91428.1 91434.5 91439.2 91441.7 91417.2 91416.4 91418.2 91422
          91427.1 91432.8 91438.3 91443.1 91446.7 91448.6 91431.8 91431.6 91433.3 91436.3 91440.1 91444.3
          91448.4 91451.9 91454.5 91455.9 91444.3 91444.6 91446.1 91448.6 91451.5 91454.5 91457.5 91460
          91461.9 91462.9 91454.7 91455.2 91456.6 91458.5 91460.8 91463.1 91465.2 91467 91468.4 91469.1
          91462.8 91463.5 91464.7 91466.3 91468 91469.7 91471.3 91472.6 91473.6 91474.1 91468.8 91469.5
          91470.6 91471.9 91473.3 91474.6 91475.8 91476.7 91477.4 91477.8 91472.8 91473.4 91474.4 91475.5
          91476.7 91477.7 91478.7 91479.4 91479.9 91480.2 91474.8 91475.4 91476.3 91477.3 91478.3 91479.3
          91480.1 91480.7 91481.2 91481.4 91352.4 91353.2 91358.6 91367.7 91378.9 91390.5 91401.2 91409.9
          91416 91419.1 91342 91342.6 91348.5 91358.8 91371.3 91384.3 91396.2 91405.8 91412.6 91416
          91322.1 91322 91329.1 91341.5 91356.9 91372.6 91386.8 91398.2 91406.1 91410.1 91294.6 91293.4
          91301.8 91317.6 91336.9 91356.5 91373.8 91387.6 91397.1 91401.9 91263.3 91260 91270.1 91290
          91314.1 91338 91359 91375.4 91386.6 91392.2 91234 91227.8 91239.6 91263.6 91292.3 91320.3
          91344.4 91363.1 91375.8 91382.3 91215 91205.9 91218.5 91245.1 91276.5 91306.7 91332.6 91352.7
          91366.4 91373.3 91213.7 91203.6 91215 91240.5 91270.9 91300.4 91325.9 91345.9 91359.6 91366.6
          91229.8 91221 91229.7 91250.6 91276.6 91302.6 91325.6 91344 91356.9 91363.5 91256.2 91249.5
          91255.6 91271.2 91291.5 91312.4 91331.6 91347.4 91358.6 91364.5 91285.7 91281.3 91285.7 91296.9
          91311.9 91327.8 91342.8 91355.5 91364.7 91369.6 91314.4 91312 91315.5 91323.6 91334.4 91346.1
          91357.4 91367.1 91374.4 91378.2 91340.4 91339.6 91342.7 91348.8 91356.7 91365.2 91373.4 91380.7
          91386.1 91389 91363.1 91363.5 91366.4 91371.1 91377 91383.2 91389.2 91394.4 91398.4 91400.5
          91382.5 91383.4 91386.1 91390 91394.4 91399 91403.4 91407.1 91410 91411.5 91398.4 91399.7
          91402.1 91405.2 91408.7 91412.1 91415.3 91418 91420 91421 91411 91412.3 91414.4 91417
          91419.7 91422.3 91424.6 91426.6 91428 91428.7 91420.3 91421.5 91423.4 91425.5 91427.6 91429.6
          91431.4 91432.9 91433.9 91434.4 91426.4 91427.5 91429.1 91430.9 91432.7 91434.4 91435.8 91436.9
          91437.7 91438.1 91429.4 91430.5 91432 91433.6 91435.2 91436.7 91437.9 91438.9 91439.6 91439.9
          91272 91273.7 91282.3 91296 91312.5 91329.3 91344.5 91356.8 91365.3 91369.6 91255.1 91256.5
          91266.1 91282 91300.9 91320 91337.1 91350.9 91360.3 91365.2 91221.9 91222.4 91234.2 91254.3
          91278.2 91302 91322.9 91339.5 91350.8 91356.5 91174.3 91172.5 91187.7 91214.6 91246.2 91276.7
          91303.1 91323.5 91337.3 91344.3 91116.7 91110.2 91130.1 91166.6 91208.1 91247.1 91279.7 91304.6
          91321.3 91329.6 91058.8 91044.1 91070.2 91118.1 91170.3 91217.5 91256.1 91285.1 91304.5 91314.1
          91018.1 90993.2 91025.2 91082.2 91141.7 91194 91236.3 91268 91289 91299.6 91016.4 90989.2
          91018.8 91073.5 91131.2 91182.4 91224.3 91256 91277.4 91288.2 91052.6 91032.3 91052 91094
          91141.3 91185.2 91222.4 91251.5 91271.8 91282.1 91104.6 91091.4 91103.5 91132.1 91166.7 91200.6
          91230.8 91255.6 91273.3 91282.6 91157.2 91149.7 91157.6 91176.6 91200.5 91225.1 91248 91267.7
          91282.2 91290 91204.4 91201.3 91207.4 91220.4 91236.8 91254.2 91271 91285.8 91297 91303.1
          91245.3 91245.1 91250.6 91260.2 91271.8 91284.2 91296.2 91307 91315.3 91319.9 91280.3 91281.9
          91287 91294.5 91303.2 91312.1 91320.8 91328.6 91334.5 91337.7 91309.8 91312.2 91317 91323.1
          91329.8 91336.4 91342.7 91348.2 91352.4 91354.6 91334 91336.7 91340.9 91345.9 91351.2 91356.2
          91360.8 91364.7 91367.6 91369.2 91353.1 91355.7 91359.3 91363.4 91367.6 91371.4 91374.9 91377.7
          91379.7 91380.8 91367.3 91369.5 91372.6 91376 91379.3 91382.4 91385 91387.1 91388.5 91389.3
          91376.5 91378.6 91381.2 91384.1 91386.9 91389.3 91391.4 91393.1 91394.2 91394.8 91381.1 91383
          91385.4 91388 91390.5 91392.7 91394.6 91396 91397 91397.5 91178.9 91182.3 91195.5 91215.8
          91239.4 91262.9 91283.9 91300.6 91312.1 91317.9 91152 91155.1 91170.4 91194.4 91222.1 91249.3
          91273.3 91292.1 91305.1 91311.6 91097.5 91099.3 91119.2 91151.3 91187.7 91222.6 91252.6 91275.7
          91291.4 91299.3 91014.9 91012.4 91040.4 91086.6 91137.4 91184.2 91223 91252.4 91271.9 91281.7
          90906.3 90891.9 90934 91003.3 91074.9 91137.4 91187.2 91223.9 91248.1 91260 90783.8 90740.8
          90808.8 90911.8 91009 91088.6 91149.5 91193.6 91222.2 91236.3 90683.5 90588.9 90699 90837.6
          90955.9 91047.7 91116.3 91165.4 91197.4 91213.3 90682.5 90582.3 90686.5 90820.4 90935.7 91025.9
          91094.2 91144.3 91177.5 91194.2 90776.9 90720.6 90774.6 90865.6 90954 91028.4 91088.2 91134.3
          91166.3 91182.7 90887.3 90858.7 90885 90939.1 90998.1 91052.2 91099.1 91138.1 91166.5 91181.5
          90983.2 90970.3 90985.2 91017 91054.4 91091.1 91125.3 91155.8 91179.1 91191.8 91060.9 91057.5
          91068.4 91088.7 91112.9 91137.6 91161.8 91184.2 91202 91211.8 91124.4 91126.4 91136.3 91151
          91167.6 91184.8 91201.8 91217.8 91230.6 91237.8 91177.5 91182.2 91191.5 91203.1 91215.6 91228
          91240.2 91251.4 91260.3 91265.3 91222 91227.5 91236 91245.6 91255.4 91264.8 91273.6 91281.5
          91287.6 91291 91258.5 91263.9 91271.2 91279.2 91287 91294.2 91300.7 91306.3 91310.5 91312.8
          91287.3 91292 91298.2 91304.7 91310.9 91316.5 91321.4 91325.4 91328.4 91330 91308.5 91312.5
          91317.6 91322.9 91327.9 91332.3 91336.1 91339.1 91341.2 91342.3 91322.4 91325.8 91330.1 91334.5
          91338.7 91342.4 91345.4 91347.7 91349.4 91350.2 91329.2 91332.4 91336.2 91340.2 91344 91347.2
          91349.9 91351.9 91353.3 91354 91072.7 91079 91098.8 91127.6 91160.2 91191.9 91219.7 91241.6
          91256.5 91264.1 91031 91037.4 91061.2 91096.4 91135.5 91172.9 91205.1 91230.1 91247 91255.5
          90943.3 90948.4 90981.8 91031.6 91085.3 91134.8 91176 91207.3 91228.2 91238.6 90800.7 90797.6
          90850.7 90929.4 91009.1 91078.4 91133.5 91174.2 91200.9 91214.1 90591 90553.6 90651.8 90786.5
          90908.8 91006.5 91080.1 91132.6 91166.4 91183 90308.1 90144.9 90369.6 90610.2 90794.4 90927
          91021.1 91086.2 91127.6 91147.8 90002.6 89400.4 90041.1 90444.6 90693.3 90855.3 90965.3 91040.5
          91088.4 91112 90008.5 89389.5 90012.7 90406.1 90651.4 90812.7 90924.2 91002.8 91054.5 91080.3
          90309.7 90109.5 90300.4 90516.1 90685.8 90811.4 90907 90980.8 91032.3 91058.9 90564.6 90494.3
          90559 90664 90763.1 90846.1 90917.9 90980.9 91028.3 91053.6 90743.3 90720.5 90749.3 90802.1
          90857.5 90908.7 90957.9 91006.6 91045.9 91067.5 90869.5 90868.2 90888.1 90919.1 90952.1 90984.5
          91017.8 91052.5 91081.8 91098.3 90966.3 90975.1 90993.1 91015.3 91037.8 91059.9 91082.9 91106.8
          91127.1 91138.7 91046.2 91058.4 91075.3 91093.2 91110.5 91126.9 91143.3 91159.5 91173.2 91181
          91113.1 91125.3 91140.3 91155.4 91169.3 91182 91194.1 91205.3 91214.4 91219.5 91168 91178.6
          91191.2 91203.7 91215 91225.1 91234.1 91242 91248.1 91251.4 91211 91219.6 91229.8 91239.9
          91249.1 91257.1 91263.9 91269.5 91273.7 91276 91242.4 91249.3 91257.5 91265.6 91273 91279.4
          91284.6 91288.8 91291.8 91293.3 91262.9 91268.6 91275.3 91282 91288.1 91293.4 91297.6 91300.9
          91303.2 91304.3 91273 91278 91283.9 91289.9 91295.4 91300.1 91303.9 91306.7 91308.6 91309.6
          90954.8 90965.7 90994.2 91033.5 91076.6 91117.6 91152.9 91180.5 91199.2 91208.6 90892.6 90905.1
          90941 90990.4 91043.2 91092.2 91133.6 91165.4 91186.7 91197.5 90756 90768.9 90823.9 90898.3
          90973.8 91040.5 91094.6 91135.1 91161.9 91175.2 90514.4 90512.6 90614.7 90744.6 90863.8 90961.3
          91036.1 91090 91125 91142.2 90102.9 89992.2 90247.4 90508.3 90709.1 90855.2 90959.3 91031.3
          91077 91099.2 89389.9 88542.3 89569.1 90169 90514.3 90728.6 90868.9 90962.1 91020.3 91048.5
          88141.3 80580.2 88263.6 89765 90316.1 90601.8 90775.4 90888.5 90959.4 90993.9 88193.8 80588.7
          88171.9 89652.4 90218 90513.3 90695.9 90820.5 90901.7 90942.1 89447.7 88476.9 89408.1 89955.9
          90285.4 90495.3 90648.4 90771.3 90858.2 90903 90078.2 89882.9 90062.3 90264.2 90421.8 90538
          90645.4 90756.6 90842.7 90888.4 90409.9 90369.9 90427.7 90510.3 90583.4 90643.2 90708.1 90793.9
          90866.9 90907.1 90608.4 90618.2 90655.3 90699.8 90739.3 90774.2 90815.9 90873.2 90925.4 90955.3
          90752.8 90780.2 90814.1 90846.7 90874.3 90899.1 90928 90964.8 90998.7 91018.6 90873.1 90902.9
          90933.9 90961.4 90984.2 91004.2 91025.3 91049.1 91070.4 91083 90974.8 91000.5 91027.1 91050.6
          91070 91086.6 91102.6 91118.4 91131.8 91139.6 91057.5 91077.8 91099.3 91118.6 91134.8 91148.5
          91160.7 91171.6 91180.2 91185.1 91121.5 91136.8 91153.5 91168.9 91182.1 91193.1 91202.4 91210.2
          91216 91219.1 91167.7 91179.2 91192 91204.2 91214.8 91223.6 91230.9 91236.6 91240.6 91242.8
          91197.4 91206.4 91216.6 91226.5 91235.2 91242.5 91248.4 91252.9 91255.9 91257.5 91212 91219.7
          91228.6 91237.3 91245.1 91251.6 91256.7 91260.6 91263.2 91264.5 90829.6 90847.3 90886.3 90937.2
          90991.2 91041.7 91084.7 91118 91140.6 91152 90741.8 90764.5 90815.9 90881.4 90948.6 91009.6
          91060.4 91099.1 91125 91138 90539.5 90570.3 90656.1 90759.6 90858.5 90943.3 91010.7 91060.7
          91093.6 91109.9 90146.9 90159.6 90349.7 90546.1 90710.3 90838.3 90934 91002 91045.9 91067.4
          89349.7 88963.8 89717.4 90185.8 90487.1 90689.7 90828.4 90922.5 90981.7 91010.5 87400.7 80111.1
          88011.4 89564.2 90170.3 90495.6 90694.5 90822.8 90902 90940.2 78717.8 -1.35422e+06 79317.8 88439.9
          89771 90270.4 90538.8 90706.4 90809.8 90859.9 79157.8 -1.32419e+06 78796.5 87846.9 89484.2 90071.5
          90379.1 90582.4 90712.9 90777.2 87744.6 79960.9 87560.9 88992.9 89643.5 89990.1 90242.8 90468.7
          90627.4 90707 89372.5 88744.3 89321.6 89673.8 89888 89995.4 90152.9 90401 90582.4 90673
          89951.6 89889.8 90002.6 90114 90182.3 90208.1 90260.6 90456.2 90615.4 90697.6 90240.4 90290.7
          90360.3 90418 90450.7 90466.1 90502.9 90613.1 90717.1 90775.1 90450.5 90527.8 90592.8 90639.4
          90667.8 90687 90717.8 90778.8 90839.4 90875 90636.6 90705.9 90763.5 90805.6 90833.9 90855.6
          90881 90916.7 90951.1 90971.6 90794.8 90847.7 90894.5 90930.8 90957.3 90978.2 90998.5 91020.9
          91040.9 91052.7 90921.1 90958.9 90994.7 91024.2 91047.1 91065.2 91081.2 91096.1 91108.3 91115.3
          91016.2 91042.6 91069.1 91092.1 91110.7 91125.6 91138 91148.4 91156.3 91160.6 91083.3 91101.9
          91121.4 91139.1 91153.9 91165.9 91175.6 91183.1 91188.6 91191.4 91125.7 91139.5 91154.5 91168.5
          91180.6 91190.5 91198.3 91204.2 91208.2 91210.3 91146.2 91157.7 91170.5 91182.7 91193.4 91202.1
          91209 91214.1 91217.5 91219.3 90705.1 90730.8 90780.5 90842.4 90906.5 90965.7 91015.9 91054.8
          91081.1 91094.3 90589.1 90627 90694.9 90775.5 90855.7 90927.5 90987 91032.2 91062.5 91077.7
          90310.5 90380.3 90498.9 90627.8 90746.9 90847.4 90927 90985.9 91024.7 91043.9 89726.3 89852.3
          90118.5 90363 90562.9 90717.2 90831.9 90913.5 90966 90991.9 88405.9 88333.3 89321.9 89893.4
          90269.7 90523 90695 90811.3 90884.6 90920.2 84984.1 78075.4 87120.8 88977.9 89799.6 90242.9
          90506.5 90674.5 90777.9 90827.8 73289.8 -1.35799e+06 76265.9 86759.2 89021.1 89851 90253.6 90496.7
          90644.6 90715.5 76008.8 -1.35858e+06 69669.9 78626.9 87777.9 89358.4 89922.8 90271.7 90486.8 90589.3
          86501.9 77190.9 85358.4 86970.9 88457.6 89031.8 89494.1 90000.4 90320.5 90468.5 88616.9 87804
          88424.2 88769.7 88918.4 88540.3 88770.5 89728.3 90199.5 90395.7 89344.2 89337.9 89484.4 89578.4
          89552.6 89329.8 89016.1 89813.8 90244.1 90427.8 89690 89871.2 89999 90062.4 90052.2 89974.1
          89923.2 90203.8 90438 90555.5 89992.9 90199.4 90325.2 90391.5 90410.8 90402.8 90417.6 90532.9
          90647.3 90711.4 90300.1 90456.8 90562.9 90627.2 90660.9 90679.6 90706.5 90762.4 90818.8 90852
          90556.7 90662.3 90743.1 90798.6 90834.3 90859.4 90884.5 90916.1 90945.7 90963.2 90752.4 90820.7
          90878.9 90922.9 90954.5 90978 90998.5 91018.5 91035.4 91045.1 90893.5 90937.4 90978.1 91011.4
          91037 91056.7 91072.7 91086.3 91096.8 91102.5 90989.4 91018.2 91046.9 91071.8 91091.9 91107.7
          91120.2 91129.9 91136.9 91140.6 91048.5 91068.8 91090 91109.3 91125.5 91138.3 91148.4 91155.9
          91161 91163.7 91076.6 91093.1 91110.7 91127.2 91141.4 91152.7 91161.5 91168 91172.3 91174.5
          90590.5 90622.6 90680.6 90751 90823.2 90889.8 90946.3 90990.3 91020.2 91035.4 90449.1 90502
          90583.5 90675.7 90766.1 90846.7 90913.6 90964.7 90999.2 91016.6 90094.2 90215.3 90362.1 90509.4
          90643.1 90755.7 90845.2 90911.8 90956 90978 89269.4 89623.1 89939.8 90209 90432 90605.1
          90734.7 90827.6 90888 90917.8 86953.6 88274.3 89093.4 89650.8 90079.9 90371.1 90569.3 90704.8
          90790.9 90833 75582.3 84476.6 86847 88223.6 89427.9 90000.7 90323.7 90530.2 90658.1 90719.8
          59847.7 66222.4 74246.4 78664.9 87741.4 89359.7 89940.2 90277.6 90479.3 90574.6 73368.3 -1.35913e+06
          -1.35917e+06 -1.3557e+06 79088.5 88069 89259.7 89889.7 90240.8 90397.9 85332.8 75167.9 75350.2 77067.5
          85825.4 86652.6 87682.9 89234 89934.2 90207 87705.7 86829.7 86967.4 87123.4 86643.7 78730.3
          79256.9 87999.6 89617.7 90066.7 88460.3 88663.3 88843.1 88858.7 88505.2 86985.7 80038.6 88146.2
          89679.1 90108.6 88758.8 89317.4 89567.3 89632.7 89511.8 89124.8 88419.1 89511.3 90084.6 90316.7
          89241.5 89771.9 90014.3 90111.9 90108.8 90031.8 89964.9 90221.7 90438.2 90547.1 89807.9 90148.1
          90337.5 90435.8 90475.9 90486 90507.5 90598.6 90687.7 90737.9 90242.2 90444.4 90578.6 90661.4
          90709.4 90739.4 90769.6 90813.7 90855.3 90879.6 90548 90666.1 90756.6 90820 90862.7 90892.9
          90918.7 90944.7 90966.9 90979.6 90754.8 90824.4 90884.3 90930.6 90964.6 90989.9 91010.1 91027.3
          91040.5 91047.7 90888.7 90931.3 90971.5 91005 91031.2 91051.2 91066.8 91078.9 91087.5 91092.1
          90968.5 90996.9 91025.4 91050.7 91071.3 91087.5 91099.9 91109.1 91115.4 91118.6 91005.6 91027.9
          91051.2 91072.4 91090.2 91104.4 91115.2 91123.1 91128.3 91130.9 90493.4 90525.6 90586.7 90661.6
          90739.1 90811.5 90873.9 90923 90956.7 90973.9 90337.9 90393.7 90481.7 90580.8 90677.8 90765.2
          90838.5 90895.4 90934 90953.6 89944.8 90079.7 90243.7 90403.5 90546.3 90667.2 90764.5 90838
          90887.2 90911.9 89013.1 89421 89795 90089.7 90323 90505 90644.1 90745.9 90813 90846.3
          86255 87700.8 88908.9 89541.9 89960.7 90252.5 90461.2 90609.5 90705.6 90753 71103.8 77160.9
          86550.4 88465.8 89346.9 89850 90179.2 90409 90555.3 90626.3 -1.35956e+06 -1.3588e+06 73481.2 85699.5
          88174.8 89127.4 89687.3 90096.7 90343.9 90459.2 66765.8 -1.35904e+06 -1.35945e+06 72924 85578.2 87287
          88402.3 89523.1 90036.3 90246.1 83778.1 73360.6 73538.7 82573.6 83628.1 76584.5 79232 87992.9
          89559.2 89996 86477.3 85833.1 85995.4 85831.1 76661.2 -1.35153e+06 -1.35142e+06 79727.6 88767.5 89779.1
          87026 87827.6 88187.2 88071.4 86636.4 75841.2 -1.34258e+06 80089.8 88864 89834.7 86668.8 88555.7
          89090.8 89176.3 88861.1 87605.8 80718.5 88382.3 89753.7 90133.6 87850.2 89236.3 89683.7 89833.8
          89809.4 89627.7 89267.9 89920.5 90274.1 90426.3 89082.5 89789.6 90106.9 90253.4 90307.5 90313.8
          90325.3 90466.4 90587.9 90652.3 89842.4 90207.1 90415.4 90533.1 90598 90636.8 90674.1 90731.7
          90783.9 90813.5 90314.9 90506.2 90637.9 90724.3 90780.2 90818.6 90850.8 90882.8 90909.6 90924.7
          90608.6 90711.9 90794.4 90855.1 90898.4 90929.9 90954.6 90975.2 90990.8 90999.4 90787.7 90846.7
          90899.5 90942.1 90974.6 90999 91017.7 91032.1 91042.2 91047.6 90890.2 90927.5 90963.8 90995.1
          91020.2 91039.6 91054.3 91065.1 91072.5 91076.2 90936.9 90965.3 90994.3 91020.2 91041.6 91058.4
          91071.1 91080.4 91086.4 91089.4 90411.5 90436.2 90493.5 90567.9 90647.8 90725.2 90793.9 90849.1
          90887.6 90907.3 90250.3 90297.2 90382.9 90483 90583.6 90676.8 90757.1 90820.5 90864.2 90886.4
          89843.3 89967.1 90133.7 90298.4 90446.8 90574.8 90680.2 90761.1 90815.9 90843.5 88887.7 89293.7
          89675.9 89979 90217.8 90407.1 90555.4 90665.9 90739.5 90776.2 86230.8 87866 88860.4 89457
          89858.2 90149.2 90367.1 90525.7 90629.6 90681 73958.3 84381.9 87337.8 88592.8 89288.5 89746
          90081.2 90322.1 90477.2 90552.9 54137.1 69626.7 84010.9 87072.9 88316.4 89036 89609.4 90016.6
          90268.2 90386.9 67177.2 -1.35919e+06 69911.3 84035.3 86411.6 87228.8 88663.9 89522 89982.8 90182.8
          82182.4 72068.4 81896.9 82765.6 82673.6 76105 86086.1 88646.2 89611.4 89962.5 84692.6 84802.1
          85685.9 84418.1 71402.6 -1.35858e+06 73883.2 87072.8 89243.1 89809.1 84142.9 86753.7 87568.2 87319.9
          85349.6 76246.3 78001.2 87556.5 89369.3 89878.9 77342.7 87395.7 88621.5 88784.5 88444.7 87677.5
          87739.8 89168.1 89857.9 90130.8 86351 88705.4 89392.9 89615.5 89631.8 89579.6 89646.5 90002.7
          90268.7 90398 88040.8 89440.5 89910.1 90112.2 90198.6 90245.7 90313.7 90442 90553.9 90614.6
          89399 89989.9 90277.7 90431.6 90517.8 90574.6 90627.9 90690 90743.3 90773.3 90088.6 90365
          90537.5 90645.9 90715.4 90763.8 90803.4 90839.5 90868.3 90884.3 90475.9 90613.8 90717.3 90791.1
          90843 90880.5 90909.5 90932.9 90950.1 90959.4 90698.1 90772.5 90836.5 90886.9 90924.9 90953.3
          90974.7 90990.9 91002.2 91008 90820.8 90866 90908.8 90945.1 90973.9 90996 91012.6 91024.8
          91032.9 91037 90875.7 90909.3 90942.8 90972.6 90996.9 91015.9 91030.1 91040.4 91047.1 91050.4
          90336.5 90346 90391.2 90458.7 90537.9 90620.9 90698.5 90762.9 90808.4 90831.9 90169.8 90199.7
          90274.4 90369.4 90470.9 90570.9 90661 90734.1 90785.1 90811.2 89720.9 89840.4 90007.6 90174.6
          90328.5 90466.2 90583.2 90674.6 90737.2 90768.8 88313.9 89034.1 89504.2 89835.9 90089.9 90294.3
          90457.5 90580.3 90662.3 90703.3 78365.1 86851.4 88572.8 89283.4 89716.5 90031.6 90270.3 90443.7
          90556.7 90612.3 -1.34469e+06 76330.6 86717.6 88383 89124.5 89625.6 89993.7 90251.8 90415 90493.7
          -1.35945e+06 66882.4 83878.1 86845.7 88054.3 88916.2 89560.3 89980.6 90230.8 90347.3 -1.36011e+06 -1.35918e+06
          71248.3 83152.6 85243.3 87124.2 88775.2 89586.7 90001.6 90180.3 70148.9 69191 80308.4 70499.3
          70024.2 76369.6 86889.3 89009.6 89748.9 90022 80760 83307.9 84387.5 74456.2 -1.35877e+06 -1.35601e+06
          78747.2 88256.9 89574.4 89941 73238.7 85398.2 86910.8 85937.2 77089.5 77917.6 86851.9 88944
          89728.6 90021.8 75731.7 86867 88312.9 88455.5 87883.2 88081.7 88982 89644.1 90038.2 90216.4
          85823.1 88438.3 89223.4 89489.5 89551.7 89669.1 89890.9 90144.5 90334.3 90430.9 87643 89258.4
          89796 90033.7 90152.9 90247.3 90353.3 90469.8 90563.9 90614.8 89184.1 89866.2 90193.1 90369.6
          90474 90548.8 90615.2 90678.2 90728.2 90755.7 89960.4 90276.9 90470.7 90592.5 90672.2 90729.1
          90774.6 90812.9 90841.7 90857.3 90391.1 90546.7 90661.4 90743.1 90800.9 90843 90875.1 90900.2
          90918 90927.4 90634.7 90717.3 90787.3 90842.3 90883.8 90914.9 90938.2 90955.6 90967.4 90973.4
          90767.7 90817.1 90863.4 90902.5 90933.6 90957.4 90975.3 90988.2 90996.7 91001 90826.8 90863.1
          90899.2 90931 90957 90977.2 90992.4 91003.3 91010.3 91013.8 90262.5 90246.1 90266.8 90316.7
          90390.7 90482.5 90575.9 90656 90713.2 90742.8 90105.4 90097.3 90143.7 90221.6 90319.7 90430.8
          90538.2 90627.6 90690.5 90722.7 89709.7 89727.2 89857.3 90013 90170.3 90323.7 90460.6 90569.6
          90644.4 90682.2 88771.6 88868.8 89290.1 89638.1 89914.5 90146.5 90335.8 90478.8 90573.6 90620.8
          86041 86435.3 88155 88993.3 89500.9 89873.8 90152.5 90350.5 90476.9 90538.4 72873.2 74846.3
          85691.5 87837.6 88804.1 89455 89892.3 90179.6 90354.1 90436.7 68715.9 63379.8 81813.3 85164.7
          87177.3 88723.5 89513.2 89958.5 90207.5 90320.6 65352.4 -1.36015e+06 63247.9 70099.4 76781.9 86832.8
          88900.5 89678.4 90046.5 90202.3 57117.5 65418.6 68979.7 -1.36033e+06 -1.35818e+06 77642.4 87810.8 89368.2
          89904.6 90109.7 64719.3 81354.7 83189.6 70951.4 -1.35461e+06 75595.6 87303.8 89236.8 89859.9 90087.8
          72405.8 85031 86676.4 85765.7 78421.5 86661.5 88692.6 89561.3 89988.6 90169.6 83731.5 87253.5
          88299.3 88492.4 88215.2 88978.2 89549.7 89950.6 90201.2 90320.2 86250.1 88473.6 89209.3 89505.2
          89642.5 89858.6 90081 90275.8 90415 90486.2 87780 89258.6 89777.4 90027.2 90172.2 90295.5
          90411.3 90515.1 90592.9 90634.2 89220.9 89852.5 90169.4 90350.2 90464.7 90550.2 90622 90682.8
          90727.9 90752.1 89956.2 90253.7 90442.6 90565.9 90649.8 90711.1 90759.3 90797.7 90825.2 90839.7
          90368.7 90517.6 90630.2 90712.3 90771.9 90815.9 90849.5 90874.9 90892.5 90901.5 90604.8 90684.9
          90754.1 90809.2 90851.4 90883.3 90907.3 90924.9 90936.7 90942.7 90734.6 90783.1 90829 90868.1
          90899.4 90923.6 90941.7 90954.8 90963.4 90967.6 90792.6 90828.4 90864.2 90895.9 90922 90942.5
          90957.8 90968.7 90975.8 90979.3 90175.9 90122.4 90100.1 90112.5 90171 90282.1 90408.1 90517.6
          90595 90634.5 90028.6 89971.2 89969.7 90008.2 90090.6 90226.6 90369.8 90489.8 90573 90615.2