<?xml version="1.0"?>
<VTKFile type="UnstructuredGrid" version="0.1" byte_order="LittleEndian">
  <UnstructuredGrid>
    <Piece NumberOfCells="3800" NumberOfPoints="4620">
      <CellData Scalars="p (Pa)">
        <DataArray type="Float32" Name="p (Pa)" NumberOfComponents="1" format="ascii">
          89924.1 89742.7 89505.3 89223.1 89039 89416.8 89810 90091.6 90263.6 90344.3 89789.7 89599.7
          89342.6 88976.3 88479.8 89246.5 89749.1 90059.4 90239.5 90322.6 89491.5 89292.6 89067.8 88834.8
          88777.8 89265.1 89710.1 90014.4 90196.9 90282.1 88939.3 88675.1 88448.4 88247.1 88457.1 89087
          89601.4 89937.9 90135 90226.3 87955.2 87386.9 86978.1 86118.1 86796.8 88512.2 89379.8 89827.9
          90062.1 90165.9 86195.9 84213.9 83165.6 74936.4 77774.7 87309 89108.4 89728.4 90005.7 90122.4
          82540.8 68605.9 68099.4 72577.2 85036.1 88027.8 89197.3 89735.8 90002.8 90118.4 65970.2 -1.35971e+06
          64719.8 82648.9 86790.1 88513.2 89357.4 89806.1 90046.5 90153.6 -1.36186e+06 60937.7 81524.6 85603.2
          87803.5 88919.2 89548.4 89916.3 90124.3 90219.4 -1.35974e+06 72071.9 85392.8 87614.8 88636.6 89324.2
          89771.8 90057.3 90227.2 90306.8 -1.35451e+06 77408.8 87330.5 88718 89304.1 89714.4 90010.9 90216
          90344.7 90406.7 77930.2 87097.1 88823.8 89439.9 89784.6 90037.1 90230 90370.9 90463 90508.5
          87842.1 89004.2 89581.6 89908 90123.2 90285.5 90412.1 90507.1 90570.9 90602.9 89376.3 89750.9
          90027.5 90221.4 90362 90470.1 90554.7 90618.6 90661.9 90683.8 89973.6 90156.6 90313.7 90436.5
          90531 90604.5 90661.9 90705.1 90734.2 90749 90305.6 90409.2 90505.5 90585.9 90650.2 90700.7
          90740 90769.2 90788.8 90798.7 90511.9 90574.2 90635.4 90688.9 90732.9 90767.8 90794.9 90814.8
          90828 90834.6 90641.7 90680.9 90721.1 90757.5 90788.1 90812.7 90831.6 90845.4 90854.5 90859
          90718.3 90744.9 90773.1 90799.4 90821.8 90840 90854 90864.1 90870.6 90873.9 90754 90775
          90797.7 90819.2 90837.8 90852.9 90864.5 90872.8 90878.2 90880.9 89755.4 89464 88978.8 88147.8
          86946.6 88375.4 89285.1 89784.7 90048.2 90163.3 89611.5 89301.6 88707 87148.1 79323.8 87508.6
          89134.4 89735.5 90016 90134.4 89300.2 89008.2 88510.8 87684.2 86739.6 88286.5 89207.1 89703.7
          89965.9 90081.7 88715.8 88409 87835.9 86797.9 86849.8 88285.9 89150.8 89631.3 89891.3 90009.1
          87645.1 87126.7 85463.1 76450.4 77469.2 87014.6 88854 89504.7 89802.5 89933.3 85675.3 83860.3
          71420.8 -1.35897e+06 -1.35086e+06 79062.3 88265.8 89393.7 89749.5 89894.7 81757.8 67874.7 -1.36274e+06 -1.35967e+06
          74579.1 86851 88858.5 89517.3 89810.2 89937.7 66608.6 -1.35923e+06 -1.33894e+06 72841.5 86049.4 88404.9
          89276.5 89706.5 89934.2 90037.9 -1.35977e+06 -1.35969e+06 72504.2 85675.2 88120.2 89080.8 89598.3 89903.2
          90079.7 90162.3 -1.35778e+06 73262.1 85785.1 88090 89002.9 89530.2 89869.6 90090.5 90225.4 90290
          74925.1 85910 88191.8 89072.2 89553.4 89875.4 90103 90260.9 90361.2 90410.1 86956.7 88443.5
          89213.1 89652.2 89937.5 90143.8 90297.5 90408.5 90480.9 90516.8 89014 89443.2 89787.5 90033.7
          90212.8 90349 90453.4 90530.4 90581.6 90607.2 89768.4 89961.7 90145.2 90294.3 90411 90502.6
          90573.9 90627 90662.6 90680.4 90163.7 90271.1 90380.1 90475.1 90553 90615.4 90664.2 90700.6
          90725 90737.3 90404.4 90469.9 90538.7 90601.1 90653.7 90696.4 90729.8 90754.7 90771.3 90779.6
          90559.7 90601.3 90646.1 90687.8 90723.6 90752.9 90775.9 90792.8 90804 90809.6 90659.4 90686.8
          90716.8 90745.3 90770.2 90790.6 90806.6 90818.2 90825.9 90829.7 90719 90738.3 90759.7 90780.4
          90798.5 90813.5 90825.2 90833.7 90839.2 90841.9 90747 90762.5 90780 90796.9 90811.9 90824.3
          90833.9 90840.9 90845.4 90847.6 89584.6 89159.5 88295.3 86080.9 76662.1 86355.9 88594.3 89442
          89818.7 89972 89421.8 88944.7 87583.3 77831.3 -1.34413e+06 78493.9 88033.9 89343.2 89766.8 89927.1
          89076.8 88661.7 87782.7 85667.1 76939.9 86450.9 88531.8 89328 89690.7 89843.5 88391.2 88047.9
          87309.6 86188 85747.5 87559.2 88658.3 89249.4 89569.4 89721.1 86957 86633.9 85343.7 84045.4
          84826.3 87272.4 88500.9 89086.1 89408.9 89582.6 83479.7 82683.6 72815.5 71562.8 75705.9 86287.2
          88295.8 88957.6 89298.9 89511 69774.5 63031 -1.3601e+06 69686 84646 87610.5 88702.1 89200.5
          89478.4 89633 65672.3 -1.35959e+06 -1.35739e+06 76289 86825.8 88506.8 89170 89523.1 89730.9 89838.3
          71468.4 68606.5 76396.6 86411.1 88393 89157.9 89568.9 89818.2 89971.1 90047.5 76912.7 84875.8
          87016.6 88484.5 89200.5 89618 89886 90063.3 90175.3 90230.8 86749.8 87991.3 88778.1 89330.6
          89698.6 89953.3 90133.7 90259.7 90341.2 90381.6 88784.8 89161.5 89526.9 89817.7 90036.7 90201.5
          90324.8 90414 90472.5 90501.8 89594.1 89768.8 89964.6 90136.3 90275.4 90385.3 90470.2 90532.8
          90574.4 90595.2 90032.4 90131.3 90246.9 90354.5 90445.9 90520.3 90578.8 90622.4 90651.5 90666.1
          90301.7 90363.5 90436.2 90506.1 90567.3 90618 90658.2 90688.3 90708.4 90718.5 90477.2 90517.6
          90565 90611.5 90652.8 90687.4 90714.9 90735.5 90749.1 90756 90593.7 90620.8 90652.4 90683.6
          90711.7 90735.3 90754.1 90768 90777.2 90781.9 90669.6 90688.2 90709.8 90731.2 90750.6 90766.9
          90779.8 90789.4 90795.7 90798.8 90715.4 90728.8 90744.4 90760 90774.1 90786 90795.3 90802.2
          90806.6 90808.8 90736.9 90747.9 90760.7 90773.5 90785.1 90794.9 90802.5 90808.1 90811.7 90813.5
          89452.8 88929.4 87832.2 84949.2 73413.5 85270.9 88123.9 89165.6 89613.6 89792.9 89272.3 88665.8
          86911.2 75439.2 -1.35901e+06 76245 87376.1 89013.9 89528.3 89720.3 88889.9 88313.5 87021 83668.1
          71214.1 84827.2 87857.6 88924.3 89380.5 89573.8 88101.2 87606.3 86625.5 84798.2 84285.9 86740.5
          88054.2 88728.5 89117.6 89333.3 85954.4 85612.6 85456.2 84995.9 85676.4 87059 87901.5 88293.4
          88660.2 89000.3 73429.9 73126.8 82032.1 83767.9 85423.6 87044 87696.2 87605.1 87986.3 88735.5
          -1.36065e+06 -1.36251e+06 67554.5 83476.1 86551 87724.8 88238 88494.1 88784.3 89087.5 66200 -1.35938e+06
          71337.5 85245.3 87647.2 88503.2 88914 89168.5 89372.3 89516.5 83522 75385.9 85130.6 87642.5
          88646.8 89155.3 89449.1 89645.2 89786.5 89868.9 86832.3 86855.6 88058.4 88845.3 89328.9 89636.3
          89840.2 89982.8 90081 90133.6 88596.7 88783.5 89168.9 89518.8 89785.4 89980 90121.2 90223.1
          90292 90327.6 89426.7 89548.2 89742.4 89934.9 90096.9 90225 90322.9 90395.2 90443.8 90468.6
          89898.8 89977 90091.7 90209.3 90313.7 90399.9 90467.9 90518.7 90552.9 90570.2 90195.7 90248
          90320.7 90396.5 90465.7 90524.3 90571.4 90606.9 90630.7 90642.7 90391.6 90427.5 90475.4 90525.6
          90572.2 90612.1 90644.5 90668.9 90685.3 90693.5 90523.7 90548.6 90580.8 90614.5 90645.9 90673.1
          90695.1 90711.7 90722.8 90728.3 90612.6 90629.9 90651.8 90674.6 90695.8 90714.2 90729.1 90740.3
          90747.7 90751.4 90670.7 90683 90698 90713.7 90728.3 90740.9 90751 90758.6 90763.6 90766.1
          90705.8 90714.8 90725.8 90737.1 90747.7 90756.7 90764 90769.3 90772.8 90774.6 90722.2 90729.7
          90738.8 90748.1 90756.7 90764.1 90769.9 90774.2 90777 90778.4 89381.8 88812.8 87665 84857.2
          74466.8 85384.4 88003.6 89012.6 89464.8 89650.6 89185.6 88476.1 86484.5 74575.5 -1.35856e+06 76077.5
          87133.1 88795.1 89334.1 89541.9 88773 87904.4 85299 70513.3 -1.3594e+06 75588.4 86835.9 88496.4
          89056.2 89300 88004 87081.9 84673.3 73324 73718 84882.3 87154.5 87941.6 88452.2 88837
          86013.8 85041.8 84476.7 83102.6 84477 86129.4 86658.4 86176.1 86730.5 87973.9 73907.1 71904.6
          82183.9 84327 85687.7 86338.1 85509.5 77471.2 78297.1 86663 -1.36054e+06 -1.35956e+06 71164.4 84447.4
          86532.3 87088.9 86664.3 86309.9 86869.5 88067.3 71411.5 -1.35843e+06 75245.3 86090.5 87675.7 88175.5
          88288.6 88438.3 88732.8 89037.9 85462.1 77357.2 86157.6 87983.6 88674.6 89012.6 89190.9 89348.8
          89515 89634 88062.1 87616.6 88469.6 89018.5 89363.2 89584.4 89733.1 89852.4 89951.6 90011.4
          89132.4 89153.5 89386 89625.5 89819.4 89965.7 90075.2 90160.3 90223.7 90258.8 89705.6 89755
          89871.9 90004.3 90123.9 90222.3 90300 90359.9 90402.3 90424.7 90057.5 90098 90170 90252.3
          90330.1 90397.1 90451.4 90493.2 90522.1 90537.1 90287.7 90317.7 90365.2 90419.1 90471.1 90516.8
          90554.4 90583.3 90603 90613.1 90442.5 90464.2 90496.3 90532.3 90567.3 90598.4 90624.1 90643.8
          90657.2 90664 90547.1 90562.7 90584.6 90608.8 90632.4 90653.4 90670.7 90684 90692.9 90697.4
          90617.2 90628.3 90643.3 90659.6 90675.5 90689.5 90701.1 90709.9 90715.8 90718.7 90662.6 90670.6
          90680.9 90692.1 90702.9 90712.4 90720.1 90726 90729.9 90731.8 90689.7 90695.7 90703.2 90711.3
          90718.9 90725.6 90731.1 90735.1 90737.8 90739.2 90702.3 90707.3 90713.5 90720.1 90726.3 90731.7
          90736.1 90739.3 90741.4 90742.5 89377.3 88831.2 87834.3 85989.9 84894.4 86957.2 88265 88999.7
          89390.4 89563.7 89168.3 88410.7 86310.2 75858 72364.8 85003.9 87746.8 88761.8 89224.8 89427.2
          88716.3 87301.4 77035.5 -1.35832e+06 -1.35944e+06 75801.9 86697.2 88228.1 88806.2 89100.6 88005.1 86215.1
          74398.4 -1.36037e+06 67783.2 83655.6 86317.3 86771.8 87505.8 88371.4 86714 84642.1 81686.5 68877.2
          81917.6 84646.9 84380.6 75995.5 77628.8 86349.7 83363 72039 79778.8 81819.1 84213.6 84250.1
          74131.3 -1.34779e+06 -1.35338e+06 76999.8 69642.9 -1.35967e+06 68634.3 83313.7 85029.7 84814.5 76060 73535.8
          77370.3 86266.4 83370 71680.6 83433.9 86326.7 87169.8 87305.5 86481.2 86566 87548.1 88473.1
          86963.9 85855 87193.7 88076.8 88504.6 88690 88703.2 88870.3 89180.7 89399.3 88520.5 88420.7
          88744.6 89079.8 89315.2 89468 89569.4 89686.3 89814.2 89895.5 89341.7 89368 89505.9 89669.6
          89810.9 89921.5 90008.5 90086.6 90153.4 90192.4 89825.4 89860.2 89939.1 90034.3 90124.5 90201.5
          90265.2 90317.9 90357.9 90380 90130.6 90158.3 90208.8 90269.2 90328.8 90381.8 90426.4 90462.1
          90487.9 90501.6 90330.5 90350.7 90384.3 90424.1 90464 90500.2 90530.8 90555 90571.9 90580.7
          90463.3 90477.8 90500.5 90527.1 90553.8 90578.2 90598.8 90615 90626.2 90631.9 90551.6 90561.9
          90577.2 90595 90612.8 90629.1 90642.8 90653.4 90660.7 90664.4 90609.5 90616.8 90627.2 90639
          90650.8 90661.5 90670.5 90677.4 90682.1 90684.5 90646.2 90651.4 90658.6 90666.5 90674.4 90681.5
          90687.3 90691.8 90694.8 90696.4 90667.7 90671.6 90676.8 90682.4 90687.9 90692.8 90696.8 90699.9
          90701.9 90702.9 90677.6 90680.9 90685.1 90689.6 90694 90697.9 90701 90703.4 90705 90705.8
          89432.3 88989.1 88317.7 87461.9 87128.1 87757 88495.5 89039.6 89374.3 89532.4 89239.2 88666.9
          87610.6 85604.4 85167.6 86960.2 88122.8 88812.6 89210.7 89397.1 88818 87906.3 85340.3 72879.9
          74281.3 85001.7 87360.9 88280.1 88825 89089.9 88088.1 86408.5 75249.6 -1.3596e+06 70548.4 84061.7
          86297.2 86815.2 87955.4 88500.2 86834.6 84198.1 70700.4 -1.36028e+06 69897.3 82913.5 83420.5 76236.2
          85454.7 87388.3 83901.8 71732.6 60509.6 64704.7 79742.5 80824.3 67089.1 -1.3556e+06 73444.1 85548.6
          72361.4 -1.35968e+06 -1.36054e+06 71961.1 73530.1 71128.9 -1.35879e+06 -1.35824e+06 76877 86624.8 83853.2 74367.1
          75209.9 84795.1 85311.3 85025.1 77122.7 78351.6 86973.9 88373.8 87072.4 86451 86796.1 87781.2
          88061.4 88135.1 87784.8 88155.1 88987.4 89312.8 88561.1 88577.3 88758.8 89023.6 89197.7 89315.4
          89389.8 89541.6 89732.7 89838.2 89371.5 89427.2 89533.2 89662.3 89774.7 89867.5 89946.3 90029.2
          90106.2 90150.8 89851.5 89892.2 89957.6 90034.5 90108.5 90174.1 90231.1 90281.9 90322.6 90345.4
          90149.5 90175.9 90217.5 90266.5 90315.5 90360.4 90399.4 90432 90456.3 90469.4 90339.6 90356.8
          90383.7 90415.6 90448.1 90478.2 90504.3 90525.6 90540.8 90548.8 90462.4 90473.7 90491.3 90512.2
          90533.6 90553.5 90570.7 90584.5 90594.1 90599.1 90541.6 90549.2 90560.7 90574.3 90588.3 90601.2
          90612.4 90621.2 90627.2 90630.4 90592 90597.1 90604.7 90613.6 90622.5 90630.9 90637.9 90643.5
          90647.3 90649.2 90623.1 90626.6 90631.6 90637.4 90643.2 90648.6 90653.1 90656.6 90658.9 90660.1
          90640.8 90643.4 90646.9 90650.9 90654.8 90658.4 90661.4 90663.7 90665.2 90666 90648.8 90650.9
          90653.8 90656.9 90660 90662.7 90665 90666.8 90667.9 90668.5 89503.3 89153 88679.5 88144.9
          87841.1 88028 88571.9 89060.8 89382.5 89537.4 89325.3 88901.2 88266.5 87433.4 87010.2 87324
          88183.2 88835.7 89233.2 89418.6 88927.2 88326.9 87225.2 85081.3 84788.7 85625.8 87394.6 88369.3
          88922.3 89173.8 88180.7 87190.8 84485.8 71757.5 81643.3 84174.6 86428.6 87586.6 88406.7 88787.6
          86684.1 84429.2 70716.8 -1.36135e+06 69029.7 82171.2 84499.6 85705.6 87539.6 88258.5 82998.1 71413.6
          -1.361e+06 -1.3627e+06 60403.1 69428.6 72508.7 76049.9 86001.1 87757.8 69672.6 61754.3 -1.35951e+06 62520
          -1.35686e+06 -1.3595e+06 -1.35808e+06 74553.5 86344.6 88037.7 82448 82000.6 74357.3 83106.5 75867.6 76459.4
          77506.7 86238.6 88195.8 88810 86497.9 86667.1 86574.3 87375.6 87239.5 87502.4 87821.4 88689.1
          89207.5 89440.1 88330.2 88516.3 88692.1 88929.7 89073.3 89227.1 89382.4 89595.9 89773.3 89868
          89288.9 89395.9 89510.5 89633.9 89740.7 89839.1 89931.2 90025 90103 90146.6 89823.1 89879.3
          89946.8 90020 90089.7 90153.8 90211.8 90263.9 90304.8 90327.3 90136.9 90167.1 90207.3 90252.5
          90297.4 90339.3 90376.5 90408.1 90431.6 90444.4 90328.4 90345.4 90369.9 90398.2 90427.1 90454.2
          90478.1 90497.8 90512 90519.6 90447.5 90457.6 90472.7 90490.6 90508.9 90526.3 90541.5 90553.8
          90562.5 90567 90521.8 90528 90537.5 90548.6 90560.2 90571.1 90580.6 90588.2 90593.5 90596.2
          90567.6 90571.5 90577.4 90584.4 90591.6 90598.3 90604.1 90608.8 90611.9 90613.6 90594.9 90597.5
          90601.2 90605.6 90610 90614.2 90617.8 90620.6 90622.5 90623.4 90610.1 90611.9 90614.4 90617.2
          90620.2 90622.8 90625.1 90626.9 90628.1 90628.7 90616.9 90618.2 90620.2 90622.4 90624.6 90626.6
          90628.3 90629.6 90630.4 90630.9 89564.1 89271.5 88886.1 88421.5 87985.4 87857.4 88481.8 89046.8
          89400.6 89565.3 89393.4 89049.9 88562.2 87890.3 87061.8 86195.8 87823.5 88770.4 89256.6 89463.7
          88998.9 88545.7 87819.1 86598.1 84604.2 76164.3 86127.4 88222.9 88989.7 89275.8 88184.5 87537.9
          86330.4 83754.1 81767 73462.7 85207.3 87726.5 88683 89041.5 85975.2 84942.8 82479.6 70598.2
          79017.2 82328.4 85608.2 87378.8 88393.8 88816.3 73320 71043.4 64334.7 55929.3 67667.4 81511
          84530.2 86620 88143.7 88693.4 -1.3622e+06 -1.36302e+06 -1.35983e+06 -1.35996e+06 -1.35929e+06 71967.9 77270.7 86545.3
          88324.6 88854.8 67247.2 69752.2 73078.4 75119.5 76619.7 85396 86704.3 88235.6 88948.6 89244.8
          84324.9 85227.6 86179.9 86909.4 87401.2 88278.9 88727.7 89182.1 89487.9 89637.1 87833.7 88206.9
          88574.7 88877.5 89110.3 89351.8 89547.1 89732.4 89873.1 89947.3 89159.6 89312.8 89469.7 89617.1
          89745.2 89863.5 89967.5 90060.4 90131.7 90170.2 89780.7 89848.6 89925.9 90005.7 90080.8 90149.7
          90210.8 90263.2 90302.4 90323.6 90114.7 90147.5 90189.3 90235.2 90280.6 90322.8 90360.2 90391.4
          90414.2 90426.4 90308.7 90325.8 90349.6 90376.9 90404.6 90430.8 90453.8 90472.7 90486.3 90493.5
          90425.4 90434.8 90448.8 90465.2 90482.1 90498.2 90512.3 90523.8 90531.9 90536.1 90496.2 90501.6
          90509.9 90519.7 90530 90539.7 90548.2 90555.1 90559.9 90562.3 90538.6 90541.9 90546.8 90552.6
          90558.8 90564.5 90569.6 90573.6 90576.4 90577.8 90563.4 90565.3 90568.3 90571.8 90575.4 90578.8
          90581.8 90584.1 90585.7 90586.5 90576.8 90578 90579.9 90582.1 90584.3 90586.4 90588.2 90589.7
          90590.6 90591.1 90582.6 90583.6 90585 90586.6 90588.2 90589.7 90591 90592 90592.7 90593
          89611.1 89350.9 89004.4 88544 87950.4 87349.4 88384.5 89071.3 89453.3 89622.6 89444.6 89135.1
          88681.1 87928.2 86182.1 78208.7 86968.9 88702.7 89310.1 89536.6 89055.2 88637.9 87922.1 86198.4
          75576.6 -1.35543e+06 77972.2 87761.5 89052.5 89390.8 88231 87629.4 86432.6 83148 67129.8 -1.35952e+06
          76335.8 87324.9 88858.3 89252.1 85901.5 85002.6 82730.9 70067.2 65291.9 73488.6 85418.2 87935.4
          88847.1 89182.3 72636.1 71126.8 67683.7 76184.2 79847.5 84362.1 86896.4 88202.2 88901.8 89197.5
          -1.36042e+06 -1.35971e+06 -1.36164e+06 68107.3 75133 85418.8 87180.1 88481.9 89082.3 89332.7 -1.36081e+06 -1.35963e+06
          71325 84097.9 85992.7 87702.6 88456.8 89044.9 89401 89567 75981.6 76684.9 85812.1 87623.7
          88318.8 88865.6 89229.2 89520.4 89719 89818.3 87309.8 87568.8 88491.2 88976.9 89280.8 89523.9
          89713.8 89868.3 89978.8 90036.1 89122.9 89238.7 89450.1 89635.8 89786.9 89915.1 90021.8 90108.9
          90171.8 90204.9 89773.4 89829.6 89913.4 90001.9 90084.1 90157.4 90220.2 90271.4 90308.2 90327.6
          90102.2 90130.9 90172.8 90220.3 90267.5 90310.9 90348.7 90379.4 90401.3 90412.8 90289.5 90304.9
          90327.8 90354.8 90382.5 90408.5 90431.3 90449.8 90462.8 90469.6 90400.9 90409.4 90422.4 90438.1
          90454.4 90469.9 90483.5 90494.5 90502.2 90506.2 90467.6 90472.4 90479.9 90489 90498.5 90507.6
          90515.6 90522 90526.4 90528.7 90507.1 90509.8 90514.1 90519.3 90524.8 90530 90534.6 90538.2
          90540.8 90542.1 90529.6 90531.2 90533.7 90536.7 90539.8 90542.8 90545.4 90547.4 90548.8 90549.5
          90541.6 90542.6 90544.1 90545.9 90547.7 90549.5 90551 90552.2 90553 90553.4 90546.8 90547.5
          90548.6 90549.8 90551.1 90552.3 90553.4 90554.2 90554.7 90555 89649.3 89416.5 89118.2 88746.7
          88358.8 88269.9 88790.7 89270.4 89575.9 89718.8 89488.8 89201.6 88788.7 88137.7 87015.4 86575.9
          88158.5 89028.3 89469.5 89654.4 89115.3 88692.3 87924.2 85928.8 76576 74719.1 86204.2 88525.5
          89289.1 89551.6 88339.9 87605.6 85510.9 72689.7 -1.3582e+06 -1.354e+06 78167.8 87873.5 89138.5 89466.6
          86230.5 84660 73769.7 -1.36053e+06 -1.35979e+06 73559.1 86290.5 88466.8 89195 89458.1 73844.9 70545.6
          57206.2 63037.2 73725.5 85450.3 87873.1 88836.4 89311.8 89514.3 -1.36006e+06 -1.3596e+06 60821.8 81385.8
          85115.1 87491.7 88519.3 89130.3 89473.7 89629.4 68557.6 -1.35764e+06 74775.6 85789.2 87609.8 88541.7
          89083.2 89450.4 89679.1 89788.7 84928.4 77474.5 86236.5 88052.8 88767.6 89215.4 89520.4 89740.8
          89886.2 89958.5 88127.5 87790.8 88614.6 89111.9 89431.8 89666.4 89843 89975.9 90066.3 90112.2
          89278.3 89303.8 89491 89679.5 89837.8 89967.9 90072.4 90153.1 90208.8 90237.4 89811.7 89844.4
          89919.9 90008.6 90093.5 90168.5 90231.2 90280.4 90314.6 90332.2 90102.4 90123.3 90161.7 90208.8
          90256.8 90300.9 90338.6 90368.5 90389.4 90400.1 90272.9 90285.3 90306.6 90333.1 90360.8 90386.8
          90409.4 90427.4 90439.9 90446.4 90375.7 90382.8 90395 90410.2 90426.2 90441.4 90454.7 90465.3
          90472.7 90476.5 90437.4 90441.5 90448.5 90457.1 90466.3 90475.1 90482.7 90488.8 90493 90495.1
          90473.8 90476.2 90480.1 90484.9 90490.1 90495 90499.3 90502.7 90505 90506.2 90494.4 90495.8
          90498 90500.7 90503.5 90506.2 90508.6 90510.5 90511.7 90512.4 90505.4 90506.2 90507.4 90509
          90510.6 90512.1 90513.5 90514.5 90515.2 90515.6 90510 90510.6 90511.4 90512.5 90513.6 90514.6
          90515.5 90516.2 90516.7 90516.9 89679.7 89479.5 89251.3 89018.9 88865.5 88921.3 89212.4 89514.7
          89728.7 89835 89528 89274.6 88956.7 88573.6 88290 88384.2 88926.1 89378.5 89660.6 89791.5
          89184.3 88788.7 88169.9 87013.4 86241.8 86610 88283.7 89133.2 89551.9 89725.2 88528.7 87756.5
          85853.3 76495.2 75567.7 77905.5 87183.4 88898.7 89468.8 89675.7 87189.8 84969.5 72466.3 -1.35764e+06
          72012.9 85363.9 88052.6 89051 89499.4 89680.9 83699.8 70121.1 -1.35999e+06 -1.35936e+06 76535.9 86954.4
          88599.5 89256.7 89589.3 89734.4 68772.9 -1.3597e+06 -1.35166e+06 73716.9 86106.5 88233.9 89036.8 89469.4
          89713 89824.7 83502.9 71315.3 76292.7 86144.9 88140.3 88950.8 89401.8 89684.8 89856.5 89938.3
          87187.9 85989 87077.4 88367 89026.9 89430.8 89699.9 89883.7 90000.6 90057.7 88686.3 88557
          88869.3 89252.3 89548.9 89770.3 89934.1 90052.1 90129.6 90168.1 89437.9 89443.8 89567.9 89731.4
          89883.2 90010 90110.3 90185.3 90235.4 90260.6 89855 89874 89935.9 90018.5 90102 90176.4
          90237.8 90284.8 90316.6 90332.8 90102.7 90117.7 90152.1 90197.6 90245.3 90289.4 90326.7 90355.7
          90375.5 90385.5 90254.6 90264.6 90284.5 90310.5 90338.1 90364.2 90386.5 90404 90416 90422.1
          90348.3 90354.5 90366.1 90381 90397 90412.1 90425.2 90435.5 90442.6 90446.2 90405.3 90409
          90415.6 90424.1 90433.2 90441.8 90449.3 90455.1 90459.1 90461.2 90439 90441.2 90444.9 90449.6
          90454.6 90459.4 90463.5 90466.8 90469 90470.1 90458.1 90459.4 90461.4 90464 90466.7 90469.3
          90471.5 90473.3 90474.4 90475 90468.2 90468.9 90470.1 90471.5 90473 90474.5 90475.7 90476.6
          90477.3 90477.6 90472.5 90473 90473.8 90474.7 90475.7 90476.6 90477.4 90478 90478.5 90478.7
          89694.2 89527.8 89373.4 89262.5 89240.3 89336.7 89528.1 89724.6 89870.5 89945.6 89546.6 89333.6
          89129.1 88974.1 88953.7 89104.3 89387.9 89648.9 89828.7 89917.5 89219.4 88882.7 88532.7 88219
          88250 88579.5 89123.4 89523.4 89764.6 89875.8 88629.1 87982.2 87226.3 86131.6 86747.4 87647.6
          88831.9 89417.8 89717.1 89845.9 87555.9 85817.4 83910.4 76064.8 85716.2 87932.3 88924.6 89448.5
          89727.7 89850.5 85127.8 73964.3 70696.3 75266.9 86153.5 88295.4 89119.6 89549.2 89784 89889.8
          75184.1 -1.35939e+06 70836.8 84824.2 87697.4 88800.8 89361.4 89684.7 89869.9 89955.4 85337 75888.9
          84957.1 87510.1 88625.4 89233.6 89601.4 89832.7 89971.4 90036.9 87837.4 87015.2 87935.8 88708.9
          89228.1 89577.8 89815.7 89975.5 90074.9 90122.8 88927.7 88830.8 89065.4 89371.7 89636.2 89841.5
          89993.5 90100.9 90169.6 90203.3 89516.3 89518.2 89622.5 89770.1 89914.3 90036.7 90132.9 90203.3
          90249.3 90272.1 89868.1 89883.5 89940.9 90020.6 90102.9 90176.6 90236.7 90281.9 90311.8 90326.7
          90088.3 90101.8 90135.7 90181.2 90229.4 90273.7 90310.8 90339 90357.9 90367.4 90228 90237.5
          90257.7 90284.3 90312.6 90339 90361.3 90378.5 90390.1 90395.9 90316 90322.1 90334 90349.4
          90365.8 90381.2 90394.4 90404.5 90411.3 90414.7 90370.1 90373.8 90380.7 90389.5 90398.8 90407.5
          90415 90420.7 90424.6 90426.6 90402.4 90404.5 90408.4 90413.2 90418.3 90423.1 90427.2 90430.4
          90432.5 90433.6 90420.7 90421.9 90424 90426.6 90429.4 90431.9 90434.1 90435.8 90436.9 90437.5
          90430.3 90431 90432.2 90433.6 90435.1 90436.5 90437.7 90438.6 90439.2 90439.5 90434.4 90434.9
          90435.6 90436.6 90437.5 90438.4 90439.2 90439.8 90440.2 90440.3 89683.3 89542.8 89449.2 89426.4
          89478.2 89591.7 89738.6 89877.8 89980.8 90034.5 89524.5 89335.6 89218.7 89209.1 89301.1 89464.5
          89660 89832.7 89954.4 90016 89167.8 88840.1 88662.1 88704.8 88925.5 89218.1 89522.6 89760
          89914.1 89988.7 88523.9 87819.9 87515.9 87750 88355.6 88912.9 89385.1 89697.4 89882.5 89968.3
          87405.4 85371.7 85173.6 86141.7 87875 88808.5 89359.8 89691.7 89882.1 89969.2 85217.3 73964.2
          82631.1 85734.4 87897.8 88894.2 89428.4 89738.1 89914 89994.4 75914.7 -1.35916e+06 75084 86359.6
          88319.3 89123.1 89561.8 89821.5 89970.9 90039.8 85640.5 76408.4 85759.7 87943.9 88881.5 89404.5
          89724.4 89924.3 90042.6 90097.9 87951.8 87201.1 88162.6 88865.3 89341.8 89665.8 89885.1 90029.9
          90118.4 90160.4 88946.4 88881.2 89128.5 89425.7 89682 89880.6 90025.9 90126.5 90189.6 90220
          89494.2 89512 89626.8 89778.1 89923.6 90045.6 90139.8 90207.4 90250.7 90271.8 89831.7 89855.5
          89920.9 90006 90091.6 90166.6 90226.7 90270.7 90299.4 90313.5 90048.1 90066.2 90105.3 90155.2
          90206.2 90252.1 90289.6 90317.5 90335.8 90344.9 90187.5 90199.5 90222.9 90252.3 90282.6 90310.2
          90333 90350.1 90361.5 90367 90276 90283.4 90297.2 90314.3 90332 90348.2 90361.6 90371.8
          90378.5 90381.8 90330.7 90335.1 90343 90352.7 90362.8 90372 90379.6 90385.4 90389.2 90391.1
          90363.4 90365.9 90370.2 90375.6 90381.1 90386.1 90390.3 90393.5 90395.6 90396.6 90381.9 90383.3
          90385.6 90388.5 90391.5 90394.1 90396.4 90398 90399.1 90399.7 90391.6 90392.4 90393.7 90395.3
          90396.9 90398.3 90399.5 90400.4 90401 90401.3 90395.8 90396.3 90397.1 90398.1 90399.1 90400
          90400.8 90401.4 90401.8 90401.9 89648.5 89522 89474.5 89516.6 89616.3 89741.7 89868.9 89977.8
          90055.7 90095.8 89456.5 89260.6 89207.4 89309.8 89475.6 89652.6 89815.8 89947.2 90037.4 90082.9
          88991.3 88530.7 88462.5 88812.9 89179.8 89483.9 89723.4 89897.1 90008.8 90063.2 88035.4 86411.2
          86301.9 87815.2 88727.9 89274.1 89625 89849.6 89984 90047.1 86045 75766 75771.6 86028.5
          88250.8 89124.9 89572.5 89830.4 89977 90044.2 84050.1 68259.1 82089.9 86428.8 88284.6 89141.2
          89592.2 89849 89993.2 90058.7 75313.8 -1.3594e+06 75246.5 86576.5 88510.6 89271.7 89671.3 89900.8
          90030.1 90089 85308.7 76206.4 85781.4 88016.6 88969.3 89485.1 89789.9 89974.5 90081.1 90130.3
          87688.4 87078.6 88142.8 88885 89377.4 89703.6 89918.1 90055.8 90137.9 90176.4 88737.1 88772.2
          89085.7 89415.5 89686.8 89890.5 90035.3 90133 90192.9 90221.4 89347.5 89420.2 89576.2 89751.5
          89909.5 90037 90132.5 90199.2 90241.1 90261.2 89729.6 89781.1 89870.4 89971.5 90066.4 90146.1
          90207.8 90251.9 90280 90293.6 89973.7 90005.3 90057.5 90117.3 90174.7 90224 90262.9 90291.2
          90309.4 90318.2 90129.2 90147.7 90178.1 90213.3 90247.6 90277.5 90301.4 90318.9 90330.2 90335.7
          90226.8 90237.4 90254.8 90275.1 90295.2 90312.8 90327 90337.4 90344.1 90347.4 90286.6 90292.5
          90302.2 90313.6 90325 90335 90343.1 90349.1 90352.9 90354.8 90321.9 90325.1 90330.4 90336.7
          90342.9 90348.4 90352.8 90356.1 90358.2 90359.2 90341.9 90343.6 90346.4 90349.7 90353 90355.9
          90358.3 90360 90361.1 90361.6 90352.3 90353.2 90354.7 90356.5 90358.3 90359.8 90361.1 90362
          90362.6 90362.9 90356.7 90357.3 90358.2 90359.4 90360.5 90361.5 90362.3 90362.9 90363.2 90363.4
          89609.8 89491.9 89480.3 89567.9 89696.1 89827.5 89943.8 90035.9 90098.9 90130.7 89375.1 89145.2
          89150.4 89352.5 89568 89753.7 89902.1 90012.2 90084.8 90120.8 88721.4 87768.6 87869.1 88769.4
          89285.6 89610.6 89827.4 89972.3 90062.1 90105.1 86807.3 77558.3 78113.9 87094.6 88788.8 89416.9
          89740.9 89930.5 90040.1 90090.8 77127 -1.35858e+06 -1.34611e+06 78413.5 87967.1 89232.5 89676.8 89904.7
          90029 90084.9 74175.4 -1.36067e+06 70058.2 85381.3 88259.8 89231.9 89673.4 89908 90035 90091.8
          70471 -1.35989e+06 71906.5 85886.4 88434.9 89314.4 89721.8 89940.1 90058.5 90111.4 83542.9 75145.5
          85094.4 87794.4 88935 89504 89815.8 89995.2 90095.6 90141 86754.4 86641.9 87909.7 88795.7
          89355.2 89705.6 89924.9 90060.6 90139.4 90175.7 88117 88482.2 88947.5 89353.2 89660.2 89878.5
          90027.5 90124.9 90183.3 90210.6 89007.5 89228.9 89473 89695.2 89876.5 90014.5 90113.9 90181.2
          90222.5 90242 89540.1 89654.5 89789.9 89919 90029.2 90116.6 90181.5 90226.6 90254.6 90268
          89859.6 89917.7 89993 90068.7 90135.7 90190.3 90231.7 90260.8 90279.1 90287.9 90052.5 90082.4
          90124.2 90168 90208.1 90241.4 90267 90285.1 90296.6 90302.1 90168.8 90184.5 90207.4 90232.4
          90255.7 90275.4 90290.6 90301.5 90308.4 90311.7 90238.1 90246.4 90258.8 90272.6 90285.7 90296.9
          90305.7 90311.9 90315.8 90317.7 90278.4 90282.6 90289.2 90296.6 90303.8 90309.9 90314.7 90318.1
          90320.3 90321.3 90300.8 90303 90306.4 90310.3 90314.1 90317.3 90319.9 90321.7 90322.8 90323.4
          90312.4 90313.6 90315.4 90317.4 90319.4 90321.2 90322.5 90323.5 90324.1 90324.4 90317.3 90318
          90319.1 90320.4 90321.7 90322.8 90323.7 90324.3 90324.7 90324.8 89598.5 89502.3 89518.1 89618.2
          89749 89875.5 89982 90062.6 90116.2 90142.8 89367.1 89176.4 89247.1 89439.3 89641.6 89813.8
          89947.1 90042.9 90104.5 90134.6 88719.6 87902.8 88450.5 89009.4 89415.6 89695 89884.1 90008.9
          90085 90121.1 86793.5 78145.7 86042.5 88151.1 89061.6 89536.5 89808.5 89971 90064.6 90107.6
          76863.2 -1.35324e+06 74201.3 86462.5 88621.9 89382.9 89745.4 89942.9 90051.2 90099.8 69691.4 -1.35978e+06
          71503.7 85794.9 88423.1 89316.9 89722.7 89936.4 90050.8 90101.5 -1.36033e+06 -1.35965e+06 -1.35874e+06 78500.3
          88067 89320 89745.3 89954.9 90065.4 90114 68801.4 72451.9 77274.2 86994.5 88838.3 89501
          89821.9 89997.2 90092.9 90135.6 83745.6 85777.7 87279.8 88636.3 89313.9 89693.1 89917.3 90051.5
          90127.8 90162.5 86305.5 87945.1 88730 89266.6 89621.2 89855.7 90009.2 90106.7 90164 90190.5
          88307.1 88924.9 89331.1 89623 89833.9 89984 90087.7 90156 90197.1 90216.3 89236.9 89479.1
          89688.4 89856 89985.3 90081.5 90150.2 90196.4 90224.6 90237.9 89707.4 89809.3 89917.5 90013.6
          90092.2 90152.8 90197 90227.3 90245.9 90254.7 89961.8 90008.1 90064.6 90119.1 90165.8 90202.9
          90230.4 90249.4 90261.2 90266.7 90105.3 90127.5 90157.2 90187.6 90214.6 90236.5 90253 90264.4
          90271.5 90274.9 90187.3 90198.4 90213.9 90230.4 90245.6 90258 90267.5 90274.1 90278.1 90280.1
          90233.8 90239.3 90247.3 90256.1 90264.2 90271.1 90276.2 90279.9 90282.1 90283.2 90259.2 90262
          90266.1 90270.6 90274.9 90278.5 90281.3 90283.2 90284.4 90284.9 90272.3 90273.7 90275.8 90278.2