<?xml version="1.0"?>
<VTKFile type="UnstructuredGrid" version="0.1" byte_order="LittleEndian">
  <UnstructuredGrid>
    <Piece NumberOfCells="3800" NumberOfPoints="4620">
      <CellData Scalars="p (Pa)">
        <DataArray type="Float32" Name="p (Pa)" NumberOfComponents="1" format="ascii">
          37028.6 36866.3 36737.3 36641.8 36576.9 36537.3 36516.6 36508 36505.9 36506 37033.6 36871.1
          36742.5 36647.8 36583.9 36545.5 36526 36518.5 36517.1 36517.5 37046.4 36883.8 36755.9 36662.6
          36600.8 36564.7 36547.2 36541.5 36541.4 36542.6 37072.6 36910 36783.2 36692 36632.8 36599.5
          36584.8 36581.3 36582.9 36584.8 37119.2 36957.2 36831.9 36742.9 36686.5 36656.2 36644.3 36643.1
          36646.3 36649.1 37193.7 37033.1 36909.6 36823 36769.2 36741.3 36731.6 36732.3 36736.7 36740.2
          37301.8 37143.7 37022.7 36938.3 36886.4 36860.2 36851.8 36853.4 36858.4 36862.2 37446.7 37292.6
          37174.5 37092.1 37041.4 37015.7 37007.4 37008.9 37013.8 37017.5 37627.6 37478.8 37364.4 37283.9
          37233.7 37207.5 37198.2 37198.6 37202.6 37205.7 37839.9 37697.8 37587.7 37509.2 37459.1 37431.8
          37420.6 37419.1 37421.5 37423.8 38076.2 37941.7 37836.5 37760.3 37710.2 37681.4 37668 37664.1
          37664.6 37665.9 38327 38200.7 38100.9 38027.3 37977.4 37947.1 37931.3 37925 37923.6 37923.7
          38582 38464.1 38369.8 38299 38249.7 38218.2 38200.3 38191.7 38188.3 38187.4 38831.1 38721.2
          38632.4 38564.5 38515.9 38483.6 38464 38453.4 38448.4 38446.5 39064.3 38961.8 38878.1 38813.1
          38765.5 38732.7 38711.8 38699.5 38693.1 38690.5 39272.9 39176.9 39097.6 39035.3 38988.7 38955.7
          38933.8 38920.3 38912.8 38909.6 39449.3 39358.5 39283 39222.9 39177.3 39144.3 39121.8 39107.4
          39099.1 39095.3 39587.1 39500.4 39427.8 39369.5 39324.6 39291.7 39268.7 39253.7 39244.9 39240.8
          39681.6 39597.6 39527 39469.9 39425.6 39392.8 39369.6 39354.2 39345 39340.7 39729.7 39647.1
          39577.4 39521 39477 39444.2 39420.9 39405.3 39395.9 39391.6 36760 36593.3 36463 36369.1
          36307.9 36273.2 36257.6 36253.8 36255.1 36257 36761.5 36594.6 36464.7 36371.8 36312 36278.9
          36264.9 36262.3 36264.6 36267 36768.2 36600.8 36471.8 36380.8 36323.6 36293.5 36282.3 36282
          36286 36289.3 36786.6 36618.8 36491 36402.6 36348.9 36322.5 36314.8 36317.6 36323.6 36328
          36825.4 36657.8 36531.5 36445.9 36395.9 36373.4 36369.3 36375 36383.2 36388.6 36893.9 36727.2
          36603 36520.1 36473.3 36453.9 36452.8 36460.8 36470.6 36476.8 36999.7 36835.4 36713.5 36633
          36588.3 36570.8 36571.2 36580.4 36590.9 36597.6 37146.9 36986.6 36867.6 36788.9 36745.1 36727.9
          36728.1 36737 36747.3 36753.8 37334.8 37180.3 37064.8 36987.5 36943.4 36925 36923.6 36930.8
          36939.8 36945.6 37557.9 37410.7 37299.5 37223.6 37178.8 37158.1 37153.8 37158.4 37165.3 37170
          37807.6 37668.7 37562.5 37488.4 37442.6 37419.4 37411.7 37413 37417.4 37420.7 38073 37943.2
          37842.5 37770.6 37724.2 37698.5 37687.5 37685.4 37687.2 37689.1 38343.1 38222.3 38127.5 38058.1
          38011.5 37983.8 37969.8 37964.6 37963.9 37964.4 38606.5 38494.5 38405.3 38338.7 38292.5 38263.2
          38246.8 38238.9 38236.1 38235.4 38853.1 38749 38665.1 38601.2 38555.6 38525.3 38507 38497.1
          38492.4 38490.7 39073.4 38976.2 38897 38835.6 38790.8 38759.9 38740.2 38728.6 38722.6 38720.1
          39259.5 39167.9 39092.5 39033.4 38989.3 38958.1 38937.4 38924.7 38917.6 38914.5 39404.8 39317.5
          39245.1 39187.7 39144.3 39113 39091.6 39078.1 39070.3 39066.7 39504.5 39420 39349.6 39293.4
          39250.4 39219.1 39197.4 39183.3 39175 39171.3 39555.2 39472.1 39402.8 39347.1 39304.4 39273
          39251.1 39236.8 39228.3 39224.4 36252.9 36077.2 35944.6 35854.4 35801.4 35777.4 35773.1 35779.1
          35787.8 35793.7 36246.7 36070.4 35938.5 35849.9 35799.1 35777.6 35775.6 35783.7 35793.8 35800.3
          36239.2 36061.8 35930.9 35845.3 35798.8 35782 35784.4 35796 35808.6 35816.5 36239.3 36060.6
          35931.3 35849.8 35808.8 35797.9 35805.9 35822.1 35837.9 35847.4 36259.5 36079.9 35952.5 35875.3
          35840.1 35835.4 35849 35869.8 35888.9 35900 36313.5 36133.9 36008.7 35935.4 35905 35905.3
          35923.4 35947.8 35969.3 35981.7 36413.2 36235.4 36112.5 36041.9 36014.3 36017.1 36037.4 36063.5
          36086.2 36099.2 36565.3 36391.7 36271.4 36201.9 36174.5 36176.9 36196.5 36221.9 36244.1 36256.8
          36768.9 36601.9 36484.8 36415.4 36385.9 36385.2 36401.4 36424 36444.1 36455.7 37016.1 36857.8
          36744.8 36675.4 36642.7 36637.2 36648.3 36666.2 36683.1 36692.9 37295.1 37147 37039.1 36970
          36934.1 36923.3 36928.5 36941.1 36954 36961.8 37592.4 37455.1 37353.2 37285.2 37246.7 37231
          37230.5 37237.7 37246.5 37252.1 37894.5 37768.1 37672.4 37606.3 37566.1 37546.4 37540.8 37543.2
          37548.2 37551.7 38188.7 38072.5 37982.9 37919.2 37878.2 37855.4 37845.8 37844.1 37845.8 37847.5
          38463.4 38356.3 38272.5 38211.2 38170 38145.1 38132.3 38127.3 38126.4 38126.7 38708.5 38609.1
          38530.2 38471.3 38430.2 38403.9 38388.8 38381.3 38378.3 38377.5 38915.1 38821.9 38747.2 38690.3
          38649.5 38622.2 38605.5 38596.2 38591.7 38589.9 39076.3 38987.8 38916.1 38860.8 38820.3 38792.5
          38774.6 38764.1 38758.5 38756.1 39186.7 39101.3 39031.7 38977.4 38937.2 38909 38890.5 38879.1
          38872.9 38870.2 39242.8 39159 39090.3 39036.6 38996.6 38968.2 38949.3 38937.6 38931 38928.1
          35490.7 35300.9 35165.6 35082.6 35044 35038.3 35052.7 35075.2 35096.1 35108.3 35470.2 35279.2
          35144.9 35064.7 35030.1 35028.7 35047.1 35072.9 35096 35109.3 35435.9 35242.6 35110.2 35035.4
          35008.3 35014.9 35040.7 35072.5 35099.7 35115.1 35401.1 35204.7 35074.7 35007.2 34990 35007.2
          35042.6 35082 35114.5 35132.6 35384.7 35185 35057.9 34998.3 34991.7 35019.9 35065.1 35112.4
          35150.3 35171.1 35409.2 35207.3 35083 35030.1 35032.2 35069.3 35122.4 35175.8 35217.9 35240.9
          35495.5 35294 35172 35122.8 35129.2 35170.4 35227.1 35283.5 35327.6 35351.6 35655.8 35458.7
          35338.4 35289 35293.9 35333.2 35388.2 35443.2 35486.5 35510.1 35888.1 35699.3 35581.3 35528.7
          35527.4 35559.6 35607.9 35657.7 35697.4 35719.2 36178.7 36001.7 35887 35830.7 35821.1 35843.1
          35881.6 35923.3 35957.5 35976.5 36509.4 36346 36236.4 36177.3 36159.5 36170.9 36198.6 36231.1
          36258.5 36274.1 36861.3 36712.3 36609.1 36548.9 36524.6 36526.4 36543.9 36567.2 36587.9 36599.9
          37217.5 37082.4 36986.2 36926.5 36897.5 36891.7 36900.4 36915.7 36930.3 36939 37562.7 37440.4
          37351.2 37292.9 37261 37249.4 37251.2 37259.8 37269.1 37275 37883.8 37772.6 37689.7 37633.3
          37599.7 37584 37580.5 37583.7 37588.9 37592.5 38169.3 38067.2 37989.6 37935.2 37900.7 37882
          37874.5 37873.8 37875.8 37877.6 38409.4 38314.4 38241.1 38188.3 38153.3 38132.6 38122.3 38118.7
          38118.4 38118.8 38596.3 38506.5 38436.4 38384.9 38349.6 38327.5 38315.3 38309.7 38307.7 38307.2
          38724.1 38637.8 38569.7 38519 38483.6 38460.7 38447.2 38440.3 38437.3 38436.3 38789 38704.4
          38637.3 38587 38551.5 38528.2 38514.2 38506.6 38503.1 38501.8 34447.9 34238.5 34101 34030.8
          34015.7 34038.7 34082 34129.5 34168.6 34190.3 34402.4 34190.8 34055.1 33990.3 33982.5 34013.1
          34063.3 34116.3 34159 34182.6 34320.7 34104.4 33972.3 33917.9 33924 33969.2 34032.3 34095.5
          34145.1 34172.2 34221.8 33998.7 33871.6 33831.6 33856.8 33921.5 34001.7 34078.2 34136.8 34168.4
          34135.6 33904.2 33782.7 33759 33805.4 33891 33989.3 34079.7 34147.6 34183.8 34101 33861.9
          33745.5 33736 33800.2 33903.2 34016.2 34117.8 34193.3 34233.3 34158.3 33915.7 33802 33799.5
          33871.9 33982.8 34102.6 34209.6 34288.9 34330.9 34332.4 34094.7 33980.5 33973.9 34041.1 34147.2
          34263.3 34368.1 34446.2 34487.7 34616.8 34391.7 34276.3 34258.3 34309.9 34400.3 34503.5 34598.7
          34670.8 34709.5 34983.5 34776.4 34662 34631.4 34663.2 34732.7 34817.3 34898.1 34960.7 34994.6
          35400.6 35214 35104 35063.6 35077.1 35125.5 35190.1 35254.7 35306 35334.2 35840.3 35674.6
          35571.4 35525.4 35524.7 35554.9 35601.3 35650.3 35690.3 35712.6 36280.8 36134.5 36039.5 35991.1
          35980.6 35996.8 36028.1 36063.5 36093.2 36110.1 36704.3 36574.9 36487.9 36439.4 36422.4 36428.3
          36447.9 36472.2 36493.5 36505.8 37095.8 36980.3 36900.4 36852.7 36831.5 36830 36840.7 36856.5
          36871.1 36879.7 37442.1 37337.6 37263.4 37216.7 37192.7 37185.9 37190.1 37199.6 37209.2 37215
          37732.3 37635.9 37566.1 37520.2 37494.4 37483.8 37483.3 37488.2 37494.1 37497.8 37957.4 37866.9
          37800.1 37754.8 37727.7 37714.4 37710.8 37712.4 37715.7 37718.1 38111 38024.2 37959.3 37914.4
          37886.4 37871.5 37865.8 37865.4 37867.2 37868.7 38188.8 38103.8 38039.9 37995.1 37966.7 37951.1
          37944.3 37943 37944 37945 33090.1 32855 32717.4 32669.3 32690.8 32757 32842.7 32926.4
          32991.3 33026.5 33002.1 32762.8 32629.1 32591.3 32626.3 32706.2 32803.8 32896.6 32967.7 33006
          32837.3 32589.2 32463.3 32446.1 32507.7 32614.1 32734.4 32844.6 32927.3 32971.3 32621.6 32359.1
          32244.5 32257.7 32357.4 32500.6 32651.9 32785.4 32883.3 32934.9 32400.6 32118.1 32017.4 32067.7
          32212 32396.7 32581.8 32740.3 32854.6 32914.2 32243.8 31938.4 31851.3 31937.1 32121.6 32342.3
          32556 32735.5 32863.6 32930.1 32235.7 31914.7 31834.4 31938 32141.9 32379.6 32607.2 32797.5
          32933.1 33003.5 32436.9 32123 32034.5 32123.5 32313.2 32540.1 32760.9 32947.7 33082.1 33152.3
          32822.7 32533.6 32432.7 32487.4 32638.4 32831.5 33026.9 33196.8 33321.5 33387.2 33327 33071
          32963.2 32983 33088.6 33238.2 33398.2 33542.5 33651 33709 33889.3 33668.3 33561.8 33555.8
          33622.1 33730.3 33853.5 33969.3 34058.6 34107.1 34468.2 34280.4 34181.1 34159.9 34197.5 34272
          34363.1 34451.9 34522.1 34560.6 35037.3 34878.2 34788.7 34760.1 34778.6 34828.4 34893.7 34959.7
          35012.9 35042.4 35577.4 35441.6 35361.6 35330 35336.2 35368.4 35414.3 35462.2 35501.5 35523.4
          36072.3 35954.3 35882 35849.2 35847.3 35867 35898.6 35932.9 35961.4 35977.4 36507.2 36402.3
          36335.7 36302.1 36294.5 36305.3 36326.5 36350.7 36371.2 36382.9 36869.6 36773.9 36711.1 36676.8
          36665 36669.3 36683.1 36700.1 36714.8 36723.3 37149.6 37060 36999.6 36964.6 36949.8 36949.5
          36958.1 36970.1 36980.9 36987.2 37339.9 37254.2 37195.1 37159.5 37142.7 37139.5 37144.8 37153.6
          37162 37167 37436.2 37352.2 37293.8 37257.9 37240 37235.4 37239.1 37246.4 37253.6 37257.9
          31374.6 31106.9 30974.5 30962.3 31039.4 31168.4 31314.2 31448.1 31548.6 31602.2 31215.1 30940.4
          30816.3 30824 30925.9 31079 31245.1 31394.1 31504.7 31563.2 30906.2 30615.2 30508.6 30558.1
          30710.7 30911.9 31117.6 31295.9 31425.5 31493.3 30476.1 30154.9 30076.2 30192.2 30421.8 30692.9
          30954.3 31172.8 31328.3 31408.7 29987.1 29615.7 29576.8 29783.3 30110.8 30465.6 30790.7 31054.4
          31238.4 31332.8 29561.6 29118.7 29128.5 29434.9 29860.1 30292.6 30674.8 30978.2 31187.6 31294.4
          29392.8 28885.5 28930 29296.6 29774.7 30247.4 30659.6 30985.3 31210.1 31324.8 29662 29177.8
          29182.5 29499.7 29940.4 30389.6 30789.6 31111.4 31336.5 31452.4 30269.5 29853.9 29802.7 30016.5
          30359.5 30734.3 31084.7 31377.1 31587.1 31696.9 31038.9 30698.1 30613.5 30732.7 30970 31253.7
          31536.1 31783.3 31966.7 32064.3 31852.1 31579.5 31486.2 31542.3 31695.7 31898.3 32113.2 32310.2
          32461 32542.7 32652.5 32437.6 32351 32372.5 32469.9 32611.3 32769.7 32920.2 33038.2 33103
          33416.3 33246.7 33172.2 33177.2 33240 33339.1 33454.5 33566.6 33655.7 33705.1 34128.8 33992.1
          33928.8 33925.8 33967.4 34037.8 34121.8 34204.5 34270.5 34307.1 34774.6 34660.2 34604.7 34596.9
          34624.3 34674.8 34736.4 34797.2 34845.8 34872.8 35337.4 35237.6 35186.4 35174.6 35191.8 35228
          35273.4 35318.5 35354.5 35374.4 35803.1 35712.5 35663.2 35647.6 35657 35682.7 35716.4 35750.3
          35777.5 35792.5 36160.7 36075.6 36026.9 36008 36011.5 36029.7 36055.3 36081.6 36102.7 36114.5
          36402.6 36320.8 36272 36250.7 36250.2 36263.6 36284 36305.5 36322.9 36332.6 36524.6 36444.2
          36395.3 36372.8 36370.3 36381.2 36399.1 36418.2 36433.9 36442.6 29252.6 28946 28827.9 28872.3
          29030.3 29247.6 29475.6 29676.8 29824.5 29902.4 28976 28658.3 28558 28640.3 28842.9 29101.5
          29363.1 29588.7 29752.2 29837.8 28420.7 28074.2 28013.8 28180.1 28477.8 28821.6 29150.3 29424
          29618.1 29718.4 27595.1 27184.8 27196.5 27510 27963 28437.6 28864.7 29206.7 29443.5 29564.4
          26554.7 26008.8 26146.3 26691.7 27363.5 28006.7 28553 28975.1 29261.4 29405.9 25488.3 24684.2
          25030.5 25886.6 26808.1 27623.7 28284.7 28782.1 29115 29282.1 24862.8 23729.9 24314.1 25416.2
          26499.7 27416.8 28145 28689.8 29054.6 29238.1 25352 24370 24738.7 25655.8 26637.2 27504.3
          28213.2 28757.4 29129.4 29318.8 26514.9 25802.1 25915.5 26496.3 27219.7 27918.6 28529.9 29025.6
          29377.6 29560.6 27836.3 27333.8 27315.4 27633.3 28104.3 28608.8 29088.7 29505.8 29815.8 29981.1
          29097.5 28746.4 28688 28853.8 29146.3 29492 29847.4 30176.1 30430.6 30569.3 30252.7 30010.9
          29956.2 30048.8 30235.3 30472.4 30729.8 30977.1 31173.8 31282.7 31311.2 31144.3 31105.4 31165.9
          31293.7 31461.9 31648.9 31830.8 31976.8 32058.1 32279.5 32158.6 32132.2 32177.1 32270.9 32395
          32532.9 32666.2 32772.7 32832 33147 33051.6 33030.5 33064.3 33135.7 33229.8 33333.2 33431.7
          33509.5 33552.6 33895.8 33813.4 33791.9 33815.5 33869.7 33942 34020.8 34094.9 34152.6 34184.3
          34509.5 34433.1 34408.3 34422.4 34462.9 34518.8 34580 34637 34681.1 34705.1 34976.6 34902.8
          34874.1 34880.2 34910.2 34954.2 35003 35048.5 35083.4 35102.4 35290.5 35217.8 35186 35186.2
          35209.1 35245.2 35286.1 35324.4 35353.8 35369.7 35448.1 35375.7 35342.2 35339.5 35358.6 35390.8
          35427.9 35462.7 35489.5 35504 26676.7 26326.6 26238 26366.3 26637.2 26972.9 27308.7 27596.7
          27804.7 27913.3 26215.1 25850 25798.3 25996.2 26343.8 26747.5 27136.5 27462.3 27694.3 27814.5
          25249.8 24838.3 24876 25237.8 25757 26305.8 26804.1 27205.8 27485.2 27628 23702.2 23156.8
          23382.8 24065.9 24889.3 25674.3 26340.3 26854.1 27202 27377.3 21497.3 20557.9 21206.6 22492.9
          23800.4 24917.6 25800.7 26453.3 26884.4 27099.1 18762.8 16710.8 18385 20707.2 22667.8 24167.3
          25278.6 26072.4 26588.5 26843.9 16555.8 12141.4 15883.7 19374.9 21872.6 23640.2 24905.9 25801.6
          26385 26674.7 17934.9 14920.5 17023.7 19697.4 21908.4 23578.2 24823.2 25738.1 26351.6 26661.4
          20697.2 19128.2 19822.5 21292.8 22786.7 24064.9 25117.9 25961.4 26559.4 26869.9 23250.9 22403.1
          22565.5 23279.2 24154.5 25007.3 25803.3 26516.4 27056 27344.7 25330 24860 24883.2 25234.9
          25733.5 26277.5 26841.5 27396.2 27839.9 28084 27050.8 26803.4 26822 27027.7 27335.6 27696.1
          28093 28499 28833.9 29021.8 28554.7 28434.2 28474.9 28625.9 28843 29100.6 29386.2 29676.2
          29916.2 30051.8 29908.2 29847.2 29898.6 30023 30191.7 30387.7 30599.2 30807 30976.2 31071.3
          31108.7 31067.5 31114.3 31216.8 31352.4 31506.4 31667 31818.7 31939.1 32006 32132.6 32092.7
          32126.1 32206.8 32315.2 32437.3 32561.7 32675.4 32763.4 32811.5 32960.4 32915.4 32933.4 32993.6
          33079.1 33176.6 33274.8 33362.7 33429.4 33465.5 33582.7 33531.7 33536.3 33579.8 33647.3 33726.4
          33806.1 33876.8 33929.8 33958.3 33996.7 33941.3 33936.4 33968.2 34023.5 34090.2 34158.1 34218.2
          34263 34286.9 34203.3 34145.6 34135.8 34161.7 34210.7 34271.3 34333.4 34388.4 34429.4 34451.1
          23613.7 23219.9 23181.8 23426.6 23845.3 24331.6 24801.7 25196.7 25478.3 25624.3 22876.4 22469.1
          22503.8 22868.3 23410.8 24002.2 24552.1 25002.7 25319.1 25481.8 21263.5 20797.5 21023.2 21687.3
          22519.3 23342.5 24060.7 24625.5 25012.2 25208.3 18446.2 17725.4 18425.1 19749.1 21137.9 22361.9
          23350.6 24090.7 24582.8 24828.5 13799.7 11915.6 14043.7 16869.4 19267.4 21110.1 22475.3 23446.1
          24073.9 24383.3 6448.52 -1057.93 6714.87 13024.1 17077.1 19737 21542.5 22771.6 23551.5 23933
          -2499.08 -37278 -3302.91 9294.28 15192.6 18571.8 20734.8 22185.2 23107.3 23560.2 3202.76 -12178
          1318.88 9660.66 14841.3 18100.6 20288.8 21835.2 22857.3 23369.3 11144.5 6583.09 9543.12 13199.9
          16274.1 18583.6 20395.9 21875.8 22932.2 23478.2 16545.2 14890.1 15534.4 16995.8 18518.6 19856
          21151.6 22448.9 23455.7 23991.5 20098.6 19464.3 19666 20302.1 21052.6 21803.6 22651.4 23648.8
          24483 24941.3 22691.9 22532.6 22714.6 23088.1 23529.9 24008.5 24583.9 25275.6 25878.4 26219.4
          24866.3 24921 25136.1 25431.7 25758.8 26113.8 26526.4 26992.6 27398.2 27630.7 26820.1 26928.3
          27140.3 27396.2 27667.7 27952.8 28261.2 28580.5 28849.8 29003.3 28540.1 28629.8 28807.2 29021.9
          29249.5 29482.7 29719.2 29945.8 30128.6 30231.2 29981.8 30033.6 30165.5 30336.3 30522.5 30712.1
          30896.7 31063.8 31193.3 31264.4 31123.8 31140.5 31230.3 31360.7 31509.8 31663.2 31809.8 31938.1
          32034.6 32086.6 31966.3 31957.1 32014.3 32112.6 32232 32357.5 32477.2 32580.2 32656.3 32696.7
          32518.8 32493.4 32529.2 32605.7 32704.7 32811.5 32913.9 33001.5 33065.5 33099.4 32792 32758.9
          32784.2 32849.7 32938.5 33035.9 33129.7 33210 33268.5 33299.4 20064.2 19632.7 19668.5 20060.6
          20658.3 21323.5 21951.7 22471.9 22839.7 23029.4 18949 18525.1 18692.6 19271.9 20052.5 20868.1
          21608.2 22205.6 22621.4 22834 16396.4 15955.1 16491.2 17560.4 18782.6 19938.5 20920.2 21679.3
          22193.9 22453.5 11529.5 10765.5 12357.7 14605.2 16731.7 18506.1 19892.7 20909.9 21578.6 21910.6
          2151.8 -1584.68 4356 9785.8 13746.4 16561.6 18553.7 19933.8 20814 21244.9 -17463.6 -52948.1
          -13498.9 2146.18 9782.64 14195.2 16987.1 18820.7 19964.5 20519.7 -60167.2 -628845 -60253.1 -8257.22
          5473.62 11772.8 15381.3 17691.1 19131.6 19832.3 -30191.8 -163934 -36990 -10053.9 3447.06 10145.8
          14059.5 16729.8 18467.8 19327.2 -4874.39 -21455 -8928.89 -360.198 6066.71 10213 13391.5 16198.2
          18196.6 19205.4 6735.58 3181.71 4984.49 7620.97 9968.49 11641.8 13713.1 16498.3 18622.5 19701
          12721.2 11954.5 12513.4 13485.5 14359.4 15032.4 16116 18235.8 20015.3 20950.7 16545.8 16802.3
          17346.7 17942.1 18442.5 18891.9 19620.1 20922 22105.7 22762.5 19735.5 20324.6 20920 21444.2
          21879.5 22293.1 22843.8 23623.9 24341 24752.3 22689.9 23228.4 23765.4 24237.4 24643.1 25025.8
          25453.4 25944.8 26378 26627.5 25266 25646.3 26066.9 26462.1 26818.7 27152.3 27486.1 27817.4
          28091.6 28246.7 27361.9 27596.2 27897.9 28207.8 28503.1 28780.7 29042.8 29280.3 29465.7 29567.9
          28969.3 29098.3 29303.5 29537.4 29773.6 29999.7 30207.8 30387.3 30521.7 30594 30122.9 30184.2
          30321.1 30496.6 30685.1 30870.2 31039.8 31182.7 31287 31342.3 30864.4 30886.7 30981.2 31118.3
          31274.3 31431.4 31576.2 31697.2 31784.6 31830.4 31226.5 31231.1 31305.5 31423.8 31563.5 31706.7
          31839.3 31950 32029.5 32071.1 16082.5 15619.7 15745 16302.1 17097.5 17960.3 18763.8 19423.7
          19887.8 20126.6 14503.9 14111.2 14446.8 15265.1 16305.2 17365.7 18315.4 19076 19602.8 19871.6
          10741.9 10547.4 11481.3 12984.5 14620 16133.8 17404 18379.1 19037.4 19368.7 3006.47 3176.4
          5800.31 8940.61 11815.9 14177.9 16003 17332.5 18203.2 18634.7 -13702.8 -14634.6 -5509.66 1989.83
          7488.72 11370.6 14080.3 15941.1 17122.8 17700 -52773.5 -85792.7 -31992.1 -10446.2 998.818 7576.81
          11613.8 14222.4 15837.9 16618.7 -120181 -689425 -109070 -34211.8 -8315.77 2816.49 8624.09 12216.9
          14424 15486.2 -91707.7 -695858 -138486 -72604.9 -18408 -2095.63 5229.72 10010.2 13027 14476.1
          -28423.2 -77481.3 -42743.3 -26816.3 -11722.3 -4272.34 1644.09 7832.86 11958.7 13900.1 -6954.24 -13853.3
          -10566.8 -6998 -4492.43 -5222.03 -2018.88 6577.08 11897.6 14242 2130.15 1731.29 2880.91 3976.97
          4179.71 3040.21 2977.94 9392.9 13875.6 15926.9 7355.95 9074.49 10421.9 11269.6 11512.6 11304.5
          11757.4 14713.7 17274.3 18588.6 12168.5 14261.6 15669.5 16556.5 17047.3 17362.5 17980.5 19385.8
          20705 21438.9 16978.4 18541.2 19710.4 20533.1 21107.4 21576.5 22135 22899.3 23597.8 23998.3
          21048.9 22032.4 22884.6 23560.7 24093.6 24549.8 25003.2 25478.4 25881.3 26110.2 24189.4 24762.2
          25341.2 25856.5 26299.5 26688.8 27046.7 27373.4 27630.6 27772.8 26482.9 26801.5 27182.2 27560.9
          27911.7 28228.8 28511.9 28753.4 28933.8 29030.8 28067.2 28238.6 28489.3 28768 29044.4 29302.4
          29531.6 29721.6 29859.2 29931.7 29059 29151.2 29325.4 29540.5 29766.9 29984.6 30179.3 30339
          30453.1 30512.6 29535.9 29593.7 29732.8 29917.4 30119.1 30316.7 30494.4 30640 30743.5 30797.2
          11783 11273.7 11479 12196.3 13190.5 14257.1 15245.5 16055.2 16623.9 16916.3 9713.7 9367.54
          9870.44 10919.6 12214.7 13522.7 14689.9 15623.5 16269.8 16599.5 4593.54 4837.14 6192.59 8100.09
          10123.9 11986.7 13548.8 14749.2 15560.5 15969.1 -6860.16 -4476.48 -820.373 3050.84 6584.88 9497.53
          11756.4 13408.8 14494.3 15033.2 -35993.7 -25105.4 -14512.2 -5925.62 886.953 5769.45 9192.49 11558.8
          13068.7 13807.7 -124588 -80365 -45941.8 -24548 -8709.47 250.139 5629.09 9114.21 11279.2 12324.9
          -209956 -258663 -152467 -89469.5 -27724.2 -8181.37 572.625 5889.2 9120.73 10655.3 -140574 -702855
          -700823 -667184 -75411.2 -21258.6 -7235.97 1456.44 6614.8 8967.3 -53719.1 -120094 -116963 -95518
          -45725.5 -34124.7 -21824.6 -5037.19 3988.53 7671.42 -24794.9 -33555.9 -32665.5 -30403.2 -33194.5 -66376.6
          -62289 -13571 2426.13 7635.09 -13634.8 -11589.6 -9547.39 -9025.28 -12202.7 -23867.2 -43183.1 -7912.43
          5405.65 9945.89 -7645.77 -1353.55 1771.27 2914.54 2150.8 -672.543 -3184.04 5504.77 11337.1 13883.5
          295.914 6310.12 9349.76 10823.7 11273.2 11146.6 11506 14248.5 16649.1 17889.6 8922.32 12718.4
          15020.3 16389.5 17183.2 17718.1 18398.9 19585.6 20669.8 21275.1 15652.7 17779.1 19333.6 20420.9
          21190.1 21796.3 22391.7 23052.7 23618.2 23937.2 20430.8 21576.3 22571.5 23369.6 24003.3 24529.5
          25001.1 25433.4 25774.1 25961.9 23698.8 24309.6 24935.6 25503.1 25995.6 26421 26790.8 27102.7
          27334.3 27458.5 25851.5 26179.7 26580 26986.9 27368 27710.2 28006.7 28248.7 28422.6 28513.8
          27157.1 27342.7 27616.5 27925 28232.9 28518.9 28768.7 28970.6 29113.5 29187.7 27773.7 27899.7
          28117.2 28379.4 28651.6 28909.7 29136.9 29320.3 29449.4 29516.1 7318.71 6697.88 6931.75 7774.67
          8949.33 10215.7 11394.2 12362.8 13044.4 13395.2 4856.87 4450.37 5050.79 6285.59 7808.37 9353.16
          10739.2 11852.9 12626.2 13021.2 -1279.91 -894.926 766.516 3009.19 5365.26 7544.16 9387.44 10814.8
          11784.2 12273.7 -15256.9 -11914.6 -7326.38 -2798.09 1239.45 4595.88 7242.5 9205.75 10506.2 11154.3
          -52630.1 -37104.5 -22870.7 -12817.5 -5344.64 131.49 4112.31 6939.73 8768.52 9668.13 -186295 -122629
          -58075.8 -31435.3 -16056.7 -6626.37 -425.643 3828.7 6523.82 7830.29 -706177 -703065 -174834 -72543.9
          -34720 -17548.9 -7543.35 -603.177 3675.29 5687.96 -220509 -703920 -711575 -172487 -67418 -38647.3
          -21933.1 -7769.27 40.6483 3393.42 -84790 -154725 -153002 -101628 -83182.6 -103943 -76934 -22592.6
          -4567.1 1413.75 -49306.4 -55675.9 -54088.7 -55551.2 -100432 -595830 -611218 -62915.5 -9131.3 967.356
          -38817.2 -28723.8 -23864.9 -24588.9 -37415.1 -96144.9 -439130 -46791.4 -4473.67 4080.64 -35296.5 -15296
          -8305.6 -6559.05 -9145.26 -18150.7 -37465.3 -6289.73 5403.75 9465.53 -18424.3 -3581.76 2286.84 4699.91
          5167.59 4422.84 3938.07 9114.37 12856.4 14612.3 -1966.08 5951.56 9984.88 12130.2 13258.2 13933.5
          14768.4 16478.5 17957.6 18751.8 9102.29 13094.3 15637.5 17263.6 18340.8 19147.9 19917 20778.4
          21500.2 21900.5 16221.5 18212.6 19754.3 20900.4 21762.5 22450.8 23050.8 23593 24014.2 24244.2
          20752.7 21758.4 22687.1 23475 24127.8 24673.3 25136.2 25520.3 25802.2 25952.2 23588.9 24113.5
          24688.6 25238.5 25733.4 26165.1 26531.6 26826.5 27036.1 27145.6 25252.4 25548 25933.1 26342.2
          26736 27092.8 27398.9 27643.2 27814.5 27903.1 26023.4 26226.7 26529.5 26873.7 27219 27539
          27816.1 28037.3 28191.7 28271.1 2784.01 1948.25 2117.41 3020.31 4341.51 5800.81 7179.31 8322.39
          9130.8 9547.71 61.1711 -565.651 6.65776 1346.48 3055.99 4827.16 6439.95 7748.01 8661.02 9128.59
          -6661.44 -6507.01 -4767.78 -2312.74 314.737 2788.63 4914.61 6578.72 7715.86 8291.64 -21578.3 -18480.8
          -13599.4 -8688.15 -4270.09 -522.91 2495.61 4767.11 6283.15 7041.03 -58557.5 -43334.9 -29490.4 -19201.8
          -11428.5 -5507.12 -1029.84 2219.85 4341.34 5388.26 -162605 -99737.2 -58906.7 -36602.5 -22560.2 -12991.3
          -6118.7 -1256.19 1853.4 3364.32 -307915 -247545 -116432 -66099.3 -40557.1 -25087.3 -13928.3 -6090.74
          -1234.08 1056.5 -248685 -704992 -234452 -112082 -71198.9 -49483.3 -27971.9 -13240.1 -4928.38 -1284.36
          -120837 -184809 -135794 -117967 -118229 -134674 -60524.6 -24373.4 -8814.69 -2993.32 -85147.5 -81207.9
          -73074.7 -84652.2 -175886 -698540 -143284 -37840.3 -10713.3 -2693.13 -82809 -50243.5 -39088.7 -40919.7
          -60730.3 -109599 -80151.3 -25192.7 -5459.38 1052.9 -98568.7 -32920.7 -18755 -15592.4 -18088.6 -22904.9
          -19246.2 -5167.36 3237.84 6774.03 -39403.9 -13867.4 -4562.07 -861.61 313.123 845.219 2819.57 7173.16
          10580 12276.3 -14058 -779.413 5242.03 8300.83 9975.04 11174.4 12566.7 14397.9 15926.8 16751.1
          2210.93 8560.02 12201.2 14413.4 15858.2 16949.4 17951.2 18943.3 19738.7 20174 12037.8 15027.8
          17150.7 18655 19757.6 20623.3 21358 21991.4 22469 22726.1 17937.2 19375.9 20611.9 21616.8
          22427.5 23092 23644.5 24092.6 24415.5 24585.5 21468.6 22194.8 22939.8 23625.9 24228.2 24744.4
          25175.9 25518.2 25758.8 25883.6 23479.9 23882.6 24372.4 24874.7 25347.7 25769.4 26126.8 26409.2
          26605.7 26706.8 24397.1 24673.3 25054.6 25473.8 25885.6 26261.7 26583.9 26838.8 27015.7 27106.4
          -1818.65 -3000.91 -3030.89 -2167.8 -747.232 908.123 2517.89 3872.47 4836.73 5335.22 -4742.45 -5749.76
          -5359.08 -4019.06 -2167.19 -161.677 1712.27 3252.61 4334.15 4889.25 -12106.2 -12318.4 -10642.9 -8062.36
          -5186.68 -2393.69 57.3746 1997.58 3329.65 4005.15 -30182 -26047.7 -20488.6 -15091.8 -10218.4 -6002.05
          -2547.73 73.0597 1826.2 2702.6 -97700.3 -57338.4 -38294.8 -26566.3 -18012.3 -11383.6 -6290.07 -2580.9
          -165.281 1023.51 -621131 -141351 -70305.8 -45033.5 -30027.5 -19355.2 -11545.4 -6073.17 -2614.87 -945.894
          -706449 -275303 -122810 -75496.5 -50036.9 -32106.5 -19198.1 -10608.1 -5438.68 -3025.11 -736817 -705008
          -227789 -131978 -92071.9 -57733.3 -31534.1 -16472 -8370.17 -4829.21 -213059 -233008 -169658 -212171
          -225368 -143035 -54492.4 -23451.2 -10584.4 -5597.52 -149881 -113785 -99954.7 -156906 -700750 -684001
          -96541.2 -27755.8 -10098.5 -4205.7 -164841 -73613.5 -54225 -60513.2 -107515 -98678.8 -41291.2 -15987.4
          -4543.44 -27.9508 -127750 -45575.6 -27145.4 -23002.8 -25354.5 -21998.2 -12051.2 -2927.12 2865.14 5534.04
          -52994.8 -21357.2 -9775.71 -4969.19 -2838.05 -480.52 2943.36 6670.21 9463.71 10888.5 -23958.3 -5917.71
          1608.69 5428.81 7679.39 9488.91 11330.2 13161.6 14587.7 15349 -3245.22 5052.52 9515.99 12191.2
          13967.9 15336.3 16534.8 17597.1 18402.8 18835 8758.94 12518.2 15064.1 16839.5 18139.6 19158.8
          20003.8 20698.7 21205 21472.9 15697 17450.2 18904.2 20068.7 21002.1 21762.3 22386 22880.8
          23230.5 23412.6 19736.1 20602.8 21466.6 22251.1 22934.3 23515.9 23997.8 24375.8 24638.7 24774.1
          21996.5 22472.2 23034.8 23604 24135.7 24606.6 25003.2 25314.5 25529.8 25640.2 23017.8 23343.1
          23779 24251.9 24712.7 25131 25487.5 25768.1 25962.1 26061.3 -6518.01 -8235.59 -8675.04 -8018.51
          -6571.24 -4685.34 -2758.45 -1106.55 75.2363 686.369 -9475.03 -11158.3 -11217.6 -10058.8 -8131.19 -5842.77
          -3612.23 -1750.04 -437.772 235.557 -16652.9 -18172.6 -17043.9 -14532.3 -11435.5 -8240.04 -5349.78 -3038.14
          -1449.38 -644.895 -32218 -33112.3 -28205.2 -22444.6 -16986.6 -12108.2 -8053.75 -4975.49 -2925.77 -1905.53
          -70012 -69054.7 -49532.7 -35757 -25688.3 -17832.2 -11843.4 -7550.35 -4794.44 -3450.29 -174175 -173334
          -90727.5 -58353.8 -39416 -26129.6 -16897.6 -10713.3 -6914.9 -5107.8 -249579 -309712 -156952 -101984
          -64893.8 -39015.4 -23607.6 -14352.9 -9032.36 -6589.45 -308596 -710762 -321644 -243198 -148180 -64077.5
          -32814.6 -18149.4 -10673.4 -7429.63 -305833 -291796 -257393 -712303 -702757 -127541 -44413.5 -20866
          -10949 -6955.23 -285530 -150032 -123637 -201479 -680721 -139432 -45476.6 -19083 -8597.24 -4505.33
          -191637 -86878.8 -62604.4 -66442 -96321.5 -49631.7 -23955.8 -10344.9 -3193.35 -90.8475 -99020.3 -48431.3
          -30856.9 -25155.7 -23880.9 -15520.9 -7246.55 -880.406 3211.96 5171.48 -53524.9 -24081.3 -12258.5 -6690.64
          -3460.05 71.6052 3660.79 6805.35 9050.13 10195.6 -25355.6 -7982.45 -287.924 3888.58 6568.78 8780.05
          10785.1 12521.3 13795.3 14463.5 -4711.49 3408.08 7962.66 10811.1 12783.4 14326 15622.4 16692.4
          17467.3 17874.7 7401.93 11128.4 13729.4 15596 16996.4 18104.8 19009.2 19728.5 20237.9 20503.2
          14466.4 16224.1 17714.5 18931.9 19922.6 20734.8 21397.2 21914.9 22275.3 22461.1 18606.1 19483.4