<?xml version="1.0"?>
<VTKFile type="UnstructuredGrid" version="0.1" byte_order="LittleEndian">
  <UnstructuredGrid>
    <Piece NumberOfCells="3800" NumberOfPoints="4620">
      <CellData Scalars="p (Pa)">
        <DataArray type="Float32" Name="p (Pa)" NumberOfComponents="1" format="ascii">
          13084.6 12363.2 10906.7 8698.74 5742.08 2083.9 -2178.07 -6927.21 -12032.5 -17347.4 12947.8 12172.3
          10596.2 8183.7 4924.43 884.038 -3780.73 -8924.37 -14406.7 -20075.4 12716.4 11834.5 10014.5 7163.89
          3218.52 -1722.39 -7307.84 -13330.1 -19644.3 -26101.9 12477.8 11447.5 9268.65 5713.57 537.315 -6169.58
          -13456.4 -21041.9 -28827.4 -36730.7 12360.2 11175 8591.67 4132.41 -2930 -12882.6 -23015.4 -33163.1
          -43436.2 -53921.7 12505.1 11226.8 8381.94 3240.91 -5658.75 -20136.1 -33893.3 -47778.5 -62512.9 -78462
          13001.6 11752.3 9012.81 4225.91 -3538.32 -15052.4 -28439.9 -45077.6 -68211.8 -103629 13824.4 12674.6
          10205.7 6054.37 -334.925 -9540.12 -21891.9 -39840.4 -70338.1 -135501 14889.3 13851.3 11652.1 8028.77
          2551.36 -5437.74 -17158.3 -36164.7 -74339.5 -192273 16111.2 15172.3 13192.3 9944.8 5019.13 -2350.61
          -13854.1 -34248 -80558.7 -234091 17425.6 16572.3 14772.3 11811.7 7277.34 331.458 -11063.8 -33910.5
          -110843 -693878 18786 18013.3 16382.1 13693.4 9560.33 3214.57 -7066.07 -25946.7 -68287.7 -136526
          20153.6 19465.2 18014.5 15632.4 12006 6586.81 -1552.2 -13770.4 -30511.8 -38717.3 21488.2 20891.3
          19640.6 17611.5 14591.6 10273.7 4358.96 -2907.57 -9145.91 -10230.8 22744.4 22242.5 21202.9 19552
          17184.1 14000.5 10058.5 5938.1 3143.83 2890.42 23872.8 23461.4 22621.4 21322.3 19535.8 17279.1
          14713.6 12293.1 10761.7 10532.5 24827.8 24493.8 23821.8 22809.5 21470.9 19866.7 18152.7 16620.3
          15632.4 15363.2 25572.7 25297.8 24752.1 23948.2 22918.3 21731 20511.6 19443.7 18719.8 18432.8
          26081.8 25846.2 25383 24711.6 23869.9 22923.6 21972.1 21141.3 20550.3 20260.6 26339.8 26123.6
          25700.9 25093.2 24339.9 23502.9 22668.8 21938.8 21404.4 21116.1 11428.4 10638.5 9039.69 6607.64
          3342.69 -693.008 -5370.6 -10573.4 -16227.8 -22341.3 11273.4 10414.5 8659.05 5950.54 2264.44 -2302.13
          -7487.47 -13116.5 -19096.6 -25443.3 11011.3 10012.5 7924.89 4585.18 -152.932 -6142.71 -12596.7 -19203.3
          -25829.8 -32485.7 10743.9 9542.37 6931.79 2453.93 -4553.48 -14196.9 -23485.1 -31958.3 -39419.7 -45712
          10628 9205.51 5950.67 -261.807 -11969.4 -32568.8 -48626.1 -60661.7 -68277.1 -69595.2 10845.6 9295.31
          5602.16 -2218.06 -21057.1 -77310.1 -108460 -128005 -133480 -108335 11512.4 10050.9 6698.16 264.008
          -12012.8 -34316.2 -54758.3 -76293.1 -103333 -132566 12568.5 11294.3 8499.4 3613.25 -4326.01 -16189.2
          -30479.8 -49655.4 -80466.9 -139993 13884.8 12797.2 10481 6638.5 815.53 -7512.17 -18915.2 -36117.4
          -68606.3 -169313 15344.5 14410.4 12449.7 9267.51 4545.48 -2219.61 -11996.1 -27461.5 -57547.2 -150422
          16864.6 16053.5 14361 11635.6 7612.17 1824.2 -6674.17 -20260.4 -46356 -112384 18389 17682.1
          16212.3 13857.7 10406.6 5503.85 -1463.11 -11566.4 -26274.5 -43402.3 19875.2 19263.8 17998.1 15987.3
          13084.9 9085.35 3757.01 -2978.36 -10389.5 -15293.6 21284.8 20764.6 19695 18017.9 15652.1 12521.1
          8642.65 4345.6 601.932 -1136.57 22579.1 22145.2 21261.4 19900.3 18035.3 15677.1 12952.6 10227.1
          8156.16 7331.93 23719.6 23363 22645 21561.1 20121 18377.6 16474.8 14692.8 13410.5 12885.5
          24671.4 24379.2 23797.4 22935.9 21822.9 20523.6 19162.4 17931.8 17048 16639.6 25407.2 25163.6
          24683.5 23984.2 23100.9 22096.9 21072 20158.2 19486.9 19134 25907.3 25696.1 25282.6 24687.4
          23947.1 23119.9 22287.4 21546.5 20987.6 20663.8 26160.1 25964.8 25584.1 25039.4 24367.2 23622.3
          22876.8 22212.4 21702.6 21392 10061.6 9220.38 7513.91 4909.36 1398.66 -2956.47 -8017.21 -13685.8
          -19956.1 -26998.2 9900.57 8980.72 7093.37 4162.11 139.132 -4877.05 -10548.1 -16705.6 -23312.6 -30525.1
          9630.68 8549.42 6269.45 2560.68 -2838.6 -9847.5 -17172.3 -24518.3 -31764.8 -38832.5 9363.96 8043.12
          5116.76 -122.862 -9025.58 -22966.9 -34890.8 -44886.4 -52614.1 -56021.1 9275.95 7684.95 3896.28 -4113.91
          -23294.1 -79776.2 -109864 -126997 -129514 -94263.5 9575.42 7824.54 3364.65 -8269.34 -60472.5 -641715
          -691674 -700305 -667487 -187386 10397.7 8791.44 4964.37 -3133.36 -22592.7 -80519.4 -117775 -155674
          -218959 -237685 11654.2 10304.4 7295.97 1847.42 -7624.03 -23272.7 -40024.9 -61840.8 -97491.7 -147578
          13182.9 12075.1 9708.29 5759.54 -260.537 -8812.38 -19728.1 -34801.6 -58398.6 -99712.2 14842.7 13928.5
          12018 8946.35 4473.91 -1690.18 -9935.02 -21379.1 -38539.4 -67512.2 16535 15771.2 14192.5 11696.3
          8126.99 3265.02 -3230.95 -12002.8 -24115.5 -40281 18194.5 17551.5 16231.5 14166.3 11254.4 7361.93
          2328.99 -3978.23 -11369.6 -18294.1 19775.5 19234.6 18131 16423 14055.9 10979.7 7195.87 2867.84
          -1450.11 -4541.52 21241.8 20790.1 19875.1 18477.1 16579.4 14194.2 11413.1 8492.19 5929.65 4376.63
          22561.2 22187.7 21437.3 20307.6 18809.1 16988.8 14967.4 12980.6 11373.2 10468.9 23704.7 23397.7
          22786.4 21880 20704.8 19320.8 17843 16452.6 15369.4 14760.6 24647.4 24394 23893.6 23162.3
          22233.1 21166.1 20057.9 19040.3 18252.9 17790.9 25369.8 25156.4 24738 24133.7 23377.9 22526
          21656.5 20866.1 20248.2 19864.3 25858.3 25671.2 25306.3 24783.7 24137.2 23416.9 22688.6 22027.7
          21503.4 21161.3 26104.5 25930.4 25591.8 25109 24515 23856.8 23194 22591.8 22109.4 21785.8
          9047.87 8182.57 6426.8 3744.7 120.762 -4402.13 -9723.87 -15790.9 -22667.8 -30659.2 8898.91 7956.65
          6025.59 3031.95 -1071.55 -6210.37 -12145.7 -18764.1 -26097 -34376.5 8656.61 7558.94 5257 1553.23
          -3748.18 -10546 -18066 -26100.7 -34645.2 -43142.5 8438.67 7117.56 4235.91 -741.053 -8615.22 -19665.7
          -30922.5 -42507.6 -55412.7 -61592.2 8424.98 6865.31 3281.53 -3608.46 -16736.1 -40241.9 -60924.8 -83850.8
          -133093 -106158 8820.52 7133.88 3099.84 -5492.58 -26287.4 -87962.7 -130230 -195436 -711013 -249221
          9748.31 8181.82 4572.21 -2406.87 -15883.5 -41056.8 -69828.4 -144848 -702298 -708147 11128.5 9800.52
          6881.32 1761.79 -6587.4 -19167.8 -35125.2 -61656.4 -131150 -179921 12795.2 11710.5 9407.57 5614.33
          -45.1024 -7886.09 -17996.2 -31807.5 -52408.4 -75818.8 14593.3 13713.7 11885.7 8978.17 4821.75 -742.99
          -7859.21 -16901.9 -28328.5 -41603.8 16409.1 15692.5 14222.5 11930.5 8730.04 4537.08 -716.001 -7076.95
          -14399 -21776.4 18166.5 17579.6 16385.9 14550.5 12033.6 8809.51 4897.23 421.997 -4235.5 -8188.17
          19815.1 19333.3 18360.5 16882.9 14892.7 12407.8 9506.25 6382.43 3420.41 1219.5 21319.4 20924.2
          20132 18943.5 17372.1 15462.2 13316.9 11130.6 9203.73 7885.63 22652.4 22328.9 21684.9 20730.7
          19492.3 18025.5 16433.3 14879 13572.9 12712.2 23792.6 23527.2 23002.6 22234.6 21254.9 20120.3
          18921.7 17785.1 16852.5 16239.2 24722.8 24502.8 24070.8 23444.9 22658.2 21763.2 20835.7 19970.5
          19264.9 18791 25430.4 25243.6 24878.8 24354.8 23703.6 22972.1 22223.1 21529.3 20960.6 20567
          25906.5 25741.4 25420.1 24961.5 24395.7 23765.3 23123.9 22530.6 22040.1 21691.2 26145.8 25991.3
          25691.4 25264.6 24740 24157.8 23566.8 23019.9 22565.1 22236.3 8407.28 7544.18 5793.99 3120.84
          -499.019 -5051.19 -10489.3 -16810 -24139.7 -32887.3 8284.98 7354.12 5452.41 2516.71 -1498.48 -6561.52
          -12553.2 -19423.7 -27273 -36503.8 8096.76 7032.61 4822.3 1322.45 -3597.24 -9889.11 -17212.7 -25426.1
          -34559.1 -44693.8 7958.61 6710.97 4049.65 -356.401 -6909.07 -15662.6 -25663.9 -36767.4 -49082.8 -60303.1
          8039.89 6607.29 3450.81 -2098.94 -11129.7 -24396.4 -39352.8 -56851.7 -79885.8 -90800 8522.63 6995.92
          3555.48 -2793.16 -14106.2 -33262.1 -54974 -85133.8 -154569 -153050 9510.77 8061.17 4839.42 -925.606
          -10634.4 -25963 -46542.7 -79748.3 -163878 -240123 10947.9 9687.56 6959.5 2313.99 -4946.42 -15533.9
          -29667.6 -49263.7 -79677.7 -113815 12683.9 11641.9 9441.33 5849.23 546.771 -6756.18 -16177.6 -27993.7
          -42520.6 -58337.5 14560.2 13718.2 11973 9210.49 5288.87 96.811 -6375.77 -14019.7 -22450.1 -30761.2
          16451 15775.4 14394.4 12255.7 9303.62 5513.31 940.82 -4216.62 -9519.86 -14208.5 18269.6 17727.6
          16631.1 14961.5 12707.7 9891.27 6602.94 3051.25 -385.956 -3158.05 19959.4 19523.7 18649.6 17337.1
          15599.4 13481.8 11086.9 8603.42 6321.24 4595.51 21484.5 21133.1 20433.5 19395.8 18046 16438.5
          14672.5 12904.8 11343.5 10206.4 22821.1 22536.5 21973.6 21148 20090.7 18857 17534.5 16246.4
          15138 14342.5 23953 23720.6 23263.5 22599.7 21761.1 20798.8 19786.8 18819.2 17997.5 17405.9
          24869 24676.1 24298.7 23755 23075.7 22306.2 21507.6 20752.1 20112.3 19644.9 25561.5 25396.9
          25076.2 24617.2 24048.4 23410 22752.6 22133.5 21607.4 21215.5 26025.4 25879.2 25594.9 25189.7
          24690.4 24132.9 23561.4 23023.5 22563.8 22215.3 26258.1 26120.7 25854.2 25475.2 25009.3 24490.4
          23959.4 23459.5 23030.4 22701.7 8117.22 7274.24 5565.38 2953.87 -593.771 -5090.32 -10532.3 -16952
          -24507.9 -33640 8027.66 7127.24 5291.46 2462.97 -1410.2 -6337.64 -12278.9 -19224.8 -27318.4 -37068.8
          7902.16 6890.71 4802.8 1524.74 -3057.37 -8966.25 -16069.7 -24244.2 -33564.9 -44593.2 7847.99 6687.19
          4243.85 283.884 -5475.64 -13165.8 -22489.1 -33055.6 -44752.7 -57822.4 8015.88 6706.37 3884.13 -886.056
          -8257.18 -18791.1 -32058.6 -47072.4 -63473.3 -79884.8 8562.23 7169.96 4112.22 -1253.65 -10101.5 -24024.6
          -43179.2 -65184.5 -90154.6 -112773 9578.6 8226.73 5254.7 14.5395 -8780.91 -23393.9 -46255.7 -71849.8
          -98852 -133831 11031.5 9828.56 7224.86 2768.76 -4345.1 -15281.4 -30821.4 -48883.3 -68218.2 -88847.8
          12790.3 11783.6 9648.77 6128.06 816.406 -6765.76 -16822 -28571 -40482 -50842.6 14699.1 13886.2
          12195.1 9496.79 5613.38 381.399 -6180.13 -13581.6 -20719.4 -26387.4 16624.9 15979.9 14659.5 12608.3
          9764.88 6105.31 1731.79 -2999.54 -7417.64 -10805.4 18472.5 17963.8 16935.6 15372.2 13268 10656.6
          7656.87 4527.4 1673.53 -482.119 20180.3 19778.7 18975.2 17774.1 16194.9 14290.4 12170.6 10022.9
          8102.04 6661.75 21710.9 21392.2 20759.7 19827.1 18623.4 17204.3 15663.4 14137.4 12793.1 11786.6
          23042.2 22787.1 22284 21550.3 20617.2 19536.5 18384.9 17263.7 16285.4 15549.5 24161.8 23954.7
          23548.6 22961.3 22223.1 21379.7 20493.2 19639.5 18897.7 18333.7 25062.3 24890.7 24555.5 24074.2
          23474.4 22795.7 22089 21412.4 20823.9 20369.9 25739.9 25593.2 25307.7 24899.6 24394.3 23826.3
          23237.9 22675.9 22185 21800.3 26192.4 26061.6 25807.5 25445.5 24999 24499 23982.6 23489.2
          23056.1 22712.1 26418.8 26295.7 26056.9 25717.1 25298.9 24831.3 24348.7 23887.5 23481.3 23156.2
          8128.15 7315.21 5666.53 3142.93 -298.886 -4692.72 -10061.8 -16452.7 -24016.9 -33134.5 8070.97 7208.84
          5451.48 2741.05 -986.14 -5771.77 -11617.6 -18524.3 -26626.5 -36392.7 8004.92 7047.89 5075.21 1978.77
          -2370.09 -8056.61 -15036.5 -23145.2 -32428.4 -43552.6 8024.76 6939.29 4660.92 972.714 -4430.43 -11824.9
          -21139.7 -31615.5 -42915.3 -56199 8260.9 7042.68 4423.39 -11.9266 -6992.83 -17524.1 -31991.8 -47214.8
          -61194.3 -77432.2 8848.15 7542.86 4666.76 -463.83 -9392.43 -25440.6 -53121.3 -78366.2 -91238.8 -110241
          9871.73 8578.71 5693.57 370.168 -9747.29 -32340.8 -94501.5 -138078 -120306 -137714 11316.2 10148.4
          7579.6 3002.81 -4976.5 -19443.4 -45064 -70866.2 -87682.4 -98961.2 13067.1 12083.6 9969.31 6375.25
          628.148 -8408.31 -21947.4 -38442.4 -52149.7 -55773.3 14974.1 14181.9 12517.3 9805.61 5758.01 -9.88427
          -7747.5 -16746.2 -24217.2 -27265 16902.3 16279.7 14997.1 12980.5 10128.3 6352.71 1707.77 -3323.12
          -7557.43 -9943.53 18751.5 18267.3 17285.7 15784.9 13747.7 11192.6 8236.93 5189.46 2576.5 839.094
          20456.7 20080.2 19326.6 18198.7 16713.4 14919.8 12927.4 10931.7 9198.16 7949.59 21978.9 21684.3
          21100.2 20239.8 19131.2 17826.9 16415.5 15025.7 13809.9 12897.2 23296.9 23063.7 22604.4 21935.8
          21087.5 20107.2 19064.1 18047.6 17154.7 16466.8 24400.3 24212.3 23844.1 23312.5 22645.5 21884.1
          21082.6 20306.1 19621.1 19082.9 25284.2 25128.9 24825.9 24391.1 23849.7 23236.4 22595.3 21975.6
          21426.2 20986.8 25947.1 25814.4 25556.1 25187.2 24730 24214.8 23678 23159.3 22696.7 22321
          26388.7 26270.2 26040 25712 25306.8 24851.3 24377.5 23919.2 23508.4 23170.8 26609.4 26497.7
          26281.1 25972.7 25592.2 25165.1 24720.9 24291 23904.4 23584.6 8379.58 7602.22 6024.49 3604.82
          292.292 -3961.52 -9196.34 -15461.8 -22879.7 -31728.5 8352.28 7532.3 5859.76 3274.87 -296.318 -4918.43
          -10620.3 -17404 -25366.6 -34859.8 8339.82 7437.18 5575.57 2645.69 -1498.97 -6992.58 -13851.5 -21881
          -31045.1 -41909.7 8423.89 7407.54 5271.72 1796.19 -3369.83 -10649.3 -20184.2 -30897.1 -42059.2 -55134.7
          8715.85 7576.76 5117.78 897.523 -5987.7 -17215.2 -34755.5 -52453.5 -64888 -80541.9 9331.98 8101.96
          5362.1 309.441 -9323.91 -30996.7 -91573.8 -138151 -120261 -133257 10351.3 9115.32 6301.44 770.893
          -12040.5 -64309.8 -576734 -704640 -251746 -235972 11769.7 10642.9 8120.74 3420.79 -5711.48 -26959
          -89932 -157644 -196121 -183101 13486.7 12532.9 10453 6798.54 524.411 -10912.5 -33845.3 -77601.3
          -117141 -81689.7 15361.8 14593.5 12961.6 10240.1 5983.79 -643.779 -11050.7 -26153.3 -37780.3 -33886.3
          17262.9 16662.2 15415.6 13425.9 10532.7 6516.11 1198.88 -5034.72 -9839.46 -10852.4 19088.9 18625.7
          17682.8 16229 14226.9 11659.4 8602.47 5389.4 2785.81 1411.65 20772.4 20416.1 19701.3 18627.3
          17203.9 15470 13525.8 11575.5 9926.04 8813.08 22273.5 21997.5 21449.9 20642.1 19599.1 18368.5
          17033.2 15718.9 14577.9 13730.2 23570.7 23354 22927.4 22306.2 21517.7 20605.5 19633.4 18683.9
          17846.7 17194.5 24654.1 24480.5 24140.6 23650 23034.2 22330.4 21587.6 20864.1 20219.3 19702.3
          25520.1 25377.2 25098.4 24698.4 24199.8 23634.1 23040.1 22461.5 21941.5 21515.5 26168.2 26046.3
          25809 25469.8 25048.8 24573.1 24074.6 23588.5 23148.4 22781.9 26599.4 26490.6 26279 25977.2
          25603.6 25182.2 24741.1 24310.1 23917.6 23586.9 26814.7 26712.1 26512.9 26228.9 25877.8 25482.1
          25067.9 24662.7 24292.5 23978.6 8808.81 8070.59 6571.48 4269.27 1109.17 -2966.36 -8009.63 -14075
          -21254.8 -29728.5 8809.14 8034.64 6454.57 4010.29 624.885 -3778.69 -9254.27 -15830.1 -23574.7 -32709
          8846.15 8001.41 6260.39 3521.31 -357.967 -5524.76 -12055.5 -19887.6 -28956.9 -39578.1 8989.67 8048.3
          6074.76 2874.89 -1861.17 -8520.6 -17359 -28081.1 -39885.2 -53334.1 9334.04 8287.93 6041.45 2227.43
          -3864.3 -13439.6 -27960.9 -47457.4 -65945.3 -85230.8 9977.68 8852.65 6370.33 1906.06 -6060.16 -21323.5
          -52991.9 -121529 -165017 -198063 10988.8 9855.44 7308.99 2519.89 -6996.86 -30577.1 -116585 -673745
          -720081 -718419 12366.3 11321.2 8995.65 4735.06 -3165.23 -19640.7 -61298.9 -189697 -758463 -720576
          14025.5 13129.7 11174.9 7727.56 1700.08 -10370.2 -47869.9 -325929 -661409 -160788 15840.8 15113.2
          13562.6 10954.3 6777.07 -200.722 -13653.8 -46438.6 -76125.5 -45154.2 17688.2 17117.1 15928.3 14016.9
          11191.8 7121.05 1266.03 -6764.39 -12978.3 -11945.1 19468.4 19028.2 18130 16738.5 14804.3 12279.9
          9179.96 5781.28 3075.88 1960.58 21113.6 20775.9 20097.5 19075.6 17714.7 16043.8 14149.2 12227.6
          10615.1 9572.81 22582.2 22321.7 21804.5 21040.6 20051.9 18881.2 17605.1 16343.6 15248.3 14437
          23851.7 23648.1 23247.1 22662.7 21920 21059 20138.7 19236.2 18436.3 17807.5 24911.7 24749.2
          24430.9 23971.2 23393.6 22732 22031.6 21345.9 20729.8 20228.7 25758.5 25625 25364.6 24990.6
          24524 23993.2 23433.6 22885.1 22387.1 21972.3 26391.8 26278.1 26056.7 25739.9 25346.1 24899.7
          24429.9 23968.3 23545.6 23187.5 26812.9 26711.5 26514.1 26232.3 25882.7 25487.1 25070.8 24660.8
          24283 23959.1 27023.1 26927.5 26741.6 26476.4 26147.8 25776 25384.8 24998.9 24642.1 24334.3
          9354.45 8656.97 7240.39 5063.64 2071.21 -1799.36 -6610.03 -12421.8 -19307.5 -27368.6 9380.22 8653.02
          7170.22 4877.37 1700.2 -2443.18 -7626.29 -13908.4 -21359.3 -30107.5 9463.02 8678.91 7066.46 4538.05
          968.858 -3782.27 -9831.94 -17237.7 -26041.2 -36412.9 9662.2 8801.27 7006.51 4124.93 -82.3693 -5919.32
          -13665.5 -23434.7 -35163.1 -49044.1 10056.7 9114.75 7114.83 3793.83 -1317.55 -8947.88 -20009.9 -35269.9
          -54704.4 -78604 10727.1 9726.89 7561.44 3824.05 -2329.84 -12577.3 -30078.4 -60794.1 -112879 -187540
          11727.8 10724.6 8525.42 4625.47 -2160.12 -14782.3 -41838.7 -120995 -444657 -732525 13056.3 12122.6
          10084.5 6504.91 408.62 -10423 -31340.8 -76810.3 -196836 -710547 14642.8 13830.5 12080.2 9077.44
          4129.37 -4419.63 -21333.5 -62265.4 -112352 -128115 16379.2 15709.5 14292.8 11946.4 8306.21 2650.41
          -6443.92 -20851.4 -34069.4 -36113 18153.1 17621.2 16518 14757.7 12193.9 8607.9 3763.55 -2163.92
          -7134.41 -8997.16 19870.7 19457.2 18614.8 17314.1 15516.5 13194.4 10392 7379.11 4843.86 3372.53
          21464.7 21145.8 20505.6 19542.2 18261.5 16692.9 14919 13116.3 11562.2 10477.9 22892.3 22645.7
          22156.1 21433.1 20497.2 19388.6 18178.2 16975.7 15917 15111.7 24129.1 23936.2 23556.2 23002.3
          22297.8 21479.9 20603.2 19739.1 18966.3 18349.7 25163.2 25009.3 24707.8 24272 23723.9 23094.9
          22426.7 21769.3 21173.9 20683.8 25990 25863.7 25617.2 25262.8 24820 24315.1 23781 23254.7
          22773.1 22367.3 26608.6 26501.1 26291.6 25991.5 25617.9 25193.3 24744.6 24301.3 23892 23541.2
          27020 26924.1 26737.4 26470.5 26138.9 25762.4 25364.7 24970.6 24604.4 24286.7 27225.3 27134.9
          26959.2 26708 26396.2 26042.4 25668.5 25297.4 24951.4 24649.2 9959.05 9301.3 7965.52 5912.6
          3087.95 -573.192 -5139.13 -10675.7 -17241.1 -24873 10007.3 9326.02 7938.11 5794.1 2824.3 -1054.11
          -5927.25 -11877 -18979.9 -27306.3 10130.4 9405.01 7917.3 5593.96 2328.23 -2010.51 -7559.73 -14450
          -22811.5 -32791.9 10378.6 9595.38 7972.73 5394.5 1680.88 -3406 -10139.5 -18806.7 -29732.8 -43316.4
          10816.9 9975.46 8209.85 5339.59 1060.07 -5085.63 -13724.6 -25713.3 -42404.3 -66277.8 11509.3 10629.7
          8760.01 5646.49 817.441 -6549.56 -17884.1 -36046 -68679.4 -147293 12496.8 11620.8 9744.21 6570.15
          1506.59 -6613.36 -20319.6 -47288.7 -128360 -699519 13774.1 12954.2 11201.1 8247.66 3572.37 -3801.96
          -15711.9 -35872.3 -73630.7 -166495 15283.5 14560.6 13028.3 10487 6555.78 536.434 -8817.84 -23244
          -40957 -59132.7 16933.7 16327.6 15060.4 13010.5 9965.07 5590.89 -534.696 -8497.53 -16495.3 -22331.8
          18625.5 18136.1 17128.5 15543.7 13292.9 10273.3 6443.82 2054.54 -1995.04 -4797.84 20272.2 19886.3
          19103.4 17903.8 16266.8 14191.5 11744.6 9144.77 6812.53 5131.02 21808.5 21507.6 20904.8 20000.9
          18805.6 17351.4 15716.3 14048.1 12557.9 11431.1 23190.6 22956.2 22491.2 21805.2 20918.5 19869.5
          18723.4 17577.2 16548.9 15740.8 24392.4 24208.2 23845.4 23316.5 22643.4 21861.3 21020.7 20187.5
          19434.1 18823.8 25399.9 25252.5 24963.8 24546.4 24020.6 23416.2 22772.2 22135.5 21554.8 21072.2
          26206.8 26085.8 25849.5 25509.6 25084.2 24598.1 24082.4 23571.9 23102 22703.2 26811.2 26708.2
          26507.4 26219.4 25860.4 25451.4 25017.9 24587.7 24188.5 23843.7 27213.5 27121.6 26942.7 26686.6
          26367.9 26005.3 25621 25238.6 24881.3 24569 27414.3 27327.7 27159.3 26918.4 26618.8 26278
          25916.7 25556.7 25219 24922 10572.2 9950.54 8688.07 6747.53 4075.52 606.234 -3732.23 -9007.36
          -15262.1 -22474.3 10638.8 9998.84 8695.95 6684.86 3899.86 258.494 -4332.2 -9965.99 -16719.3 -24611
          10794.7 10121.1 8742.72 6597.01 3590.58 -398.332 -5515.1 -11922.7 -19789.7 -29250.2 11082 10365.9
          8889.7 6562.87 3244.01 -1262.7 -7211.71 -14928.1 -24824.5 -37354.7 11553.5 10797.2 9224.29 6706.86
          3033.66 -2112.41 -9194.17 -18914.6 -32405.1 -51291.4 12259.8 11480.3 9846.05 7191.61 3228.28 -2516.75
          -10832.6 -23205.1 -42932.8 -77398.3 13230.4 12459.5 10835.8 8176.1 4148.93 -1819.74 -10785.9 -25156.3
          -52697.1 -128330 14457.9 13733.8 12211 9723.23 5976.57 486.556 -7528.13 -19380.9 -37584.2 -67363.2
          15893.8 15248.1 13898.8 11719.8 8497.14 3904.28 -2496.02 -11102 -21705.6 -33725.3 17460.7 16910.8
          15773 13968.9 11375.9 7837.13 3219.15 -2399.83 -8402.45 -13912.5 19071.9 18620.2 17696.7 16262.6
          14266.8 11666.7 8482.2 4902.63 1386.44 -1523.5 20648.3 20286.4 19555.2 18442.7 16940.4 15061.5
          12874.3 10546.8 8361.75 6620.16 22127.1 21841.3 21269.9 20415.5 19290.4 17927.8 16398.6 14826.7
          13382.7 12236.2 23464.3 23239.6 22793.9 22136.9 21288.4 20284.6 19185.4 18078.2 17068.9 16258.2
          24631.9 24454.2 24104.1 23593.4 22943.1 22186.1 21369.9 20556.3 19814.3 19207.4 25613.9 25471.3
          25191.6 24786.8 24276.3 23688.2 23059.8 22435.8 21863.8 21386.3 26402.2 26284.9 26055.6 25725.5
          25311.7 24838 24333.9 23833.5 23371.2 22977.6 26993.7 26893.8 26698.9 26419.2 26069.8 25671.2
          25247.6 24826.2 24433.9 24094.1 27387.7 27298.6 27125.1 26876.4 26566.5 26213.2 25838 25463.7
          25112.9 24805.2 27584.6 27500.6 27337.3 27103.4 26812.2 26480.4 26127.8 25775.5 25444.1 25151.5
          11153.4 10562.1 9361.35 7514.92 4970.04 1660 -2489.56 -7546.42 -13539.4 -20390.5 11233.6 10627.9
          9395.17 7492.73 4857.1 1405.5 -2959.84 -8340.3 -14810.4 -22343 11413.4 10781.6 9490.53 7484.08
          4676.35 949.724 -3846.61 -9894.92 -17389.3 -26455.2 11728 11064.4 9700.65 7560.78 4523.99 415.488
          -5009.16 -12089.4 -21283.4 -33121 12220.7 11528.7 10097.6 7827.69 4553.96 23.7071 -6148.37 -14573
          -26256 -42791 12931.3 12225.5 10758 8408.09 4969.75 111.337 -6713.47 -16487.8 -31198.3 -55201.1
          13881.4 13186.5 11737.9 9407.16 5972.57 1070.59 -5917.11 -16190.1 -32635.3 -64365 15062.3 14407.6
          13044.3 10856.5 7648.57 3116.33 -3202.85 -12034.7 -24630.1 -43408.8 16432.5 15843 14621.4 12678.8
          9872.27 6000.65 817.454 -5906.64 -14239.7 -23993.4 17925.5 17416.4 16369.8 14728.3 12408.2 9311.08
          5364.56 614.717 -4635.3 -9781.74 19464.9 19040.4 18175.7 16841.7 15002.5 12632.8 9755.88 6507.37
          3199.99 301.807 20978.2 20633.3 19937.5 18881.8 17461.2 15690.2 13627.7 11410.3 9270.94 7503.92
          22405.5 22129.9 21578.9 20755.4 19670.9 18356 16873.9 15334.8 13896.3 12734.5 23702.5 23483.8
          23050.1 22410 21582 20599.4 19518.2 18420.6 17410.5 16594.7 24839.7 24665.8 24323.1 23822.4
          23183.4 22437.2 21629.3 20819.8 20078.3 19471.7 25799.2 25659.3 25384.7 24986.7 24483.7 23902.7
          23279.8 22659.4 22089.7 21615 26571.4 26456.2 26230.9 25906.1 25498.3 25030.5 24531.5 24035.1
          23576.3 23186.4 27151.7 27053.6 26862.2 26587.2 26243.3 25850.2 25431.8 25015 24626.7 24290.7
          27538.7 27451.3 27281 27036.8 26732.1 26384.4 26014.4 25644.9 25298.4 24994.5 27732.1 27649.9
          27489.7 27260.2 26974.1 26647.8 26300.6 25953.2 25626.2 25337.3 11672.8 11105.5 9953.09 8179.76
          5732.57 2543.43 -1464.59 -6360.45 -12163.8 -18753.7 11761.9 11182.7 10003.5 8182.91 5657.64 2343.08
          -1864.23 -7075.11 -13371 -20702.6 11956.8 11356.2 10129 8222.04 5551.65 1998.89 -2597.01 -8443.67
          -15781.8 -24789.3 12287.4 11661.2 10375.7 8361.15 5504.23 1633.96 -3502.93 -10285.4 -19279.3 -31253.1
          12789.7 12141.6 10804.1 8689.32 5649.33 1449.84 -4283.42 -12178.5 -23358.4 -39899.6 13496 12838.3
          11475.5 9304.64 6148.66 1717.63 -4476.28 -13324 -26671.4 -48996.1 14422.7 13775.8 12432.5 10284.9
          7146.53 2710.48 -3544.01 -12597.4 -26723.7 -53642.3 15561.2 14948.9 13678.5 11651 8698.96 4558.46
          -1181.07 -9173.65 -20544 -37594.4 16875.2 16318.9 15169 13346.8 10724.6 7117.58 2282.01 -4053.05
          -12068.2 -21578.9 18306.6 17820.6 16822.4 15258.4 13047.9 10088.8 6283.47 1610.66 -3715.61 -8999.28
          19786.7 19376.6 18540.8 17249.6 15463.5 13146.2 10294.6 7001.42 3554.79 524.79 21248.2 20911.4
          20231 19195.5 17795.1 16033.8 13953.8 11674 9432.32 7590.55 22633.3 22361.9 21818.2 21002.9
          19923.2 18602.7 17096.6 15510.6 14012.9 12815.8 23897.5 23681 23250.6 22613.3 21784.6 20794.2
          19694.8 18568.6 17528.2 16698 25010 24837.3 24496.3 23996.7 23356.3 22604.5 21785.6 20961.1
          20205.5 19594.5 25951.5 25812.4 25539 25141.9 24638.5 24054.7 23426.6 22799.5 22224.5 21749.8
          26710.7 26596.2 26372.2 26048.7 25641.6 25173.4 24673 24174.7 23715 23326.9 27282.2 27184.9
          26994.9 26721.6 26379.3 25987.4 25569.8 25153.7 24766.6 24433.3 27663.6 27577.1 27408.4 27166.2
          26863.7 26518.1 26150.2 25782.7 25438.4 25137.4 27854.4 27773 27614.5 27387.2 27103.6 26779.9
          26435.2 26090.4 25766 25480 12111.2 11561.6 10444.6 8724.25 6347.01 3243.28 -666.19 -5452.02
          -11129.4 -17550.9 12205.2 11644.9 10503.8 8740.18 6289.98 3065.64 -1042.62 -6157.32 -12377.9 -19669.7
          12407.8 11828.4 10644 8801.7 6216.43 2763.95 -1731.06 -7511.35 -14899.3 -24247.9 12744.9 12142.7
          10906 8965.85 6207.6 2452.28 -2579.17 -9339.34 -18610.2 -31811.4 13247.4 12625.6 11342 9310.18
          6381.26 2310.78 -3311.77 -11228.9 -22958.8 -42157.8 13942.8 13312 12004.3 9918.24 6875.1 2571.57
          -3524.54 -12431.5 -26394 -51421.3 14844.8 14222.5 12929 10856 7810.89 3462.87 -2773.4 -12029.3
          -26910.4 -55915 15945.5 15352.8 14120.4 12145.3 9244.82 5112.72 -765.018 -9260.51 -21852.4 -41022.7
          17213.2 16669.9 15543.4 13746.6 11129.7 7452.92 2351.31 -4673.54 -14068.1 -25340 18595.9 18116.7
          17128.4 15567.3 13328.4 10256.7 6149.22 815.151 -5658.37 -12132.8 20030.3 19622.4 18787.2 17485.6
          15657.8 13228.5 10129.2 6373.89 2254.78 -1312.47 21452.6 21115.3 20430.8 19380.4 17940 16090.7
          13843 11292.3 8715.49 6658.66 22806.1 22533.1 21984.1 21154.7 20043.7 18663 17055.4 15324.8
          13671.2 12390.8 24046 23827.8 23392.6 22744.4 21894.2 20866.3 19709.4 18509.8 17398.8 16536.8
          25140.4 24966.4 24621.8 24114.8 23461 22687.3 21837.6 20976.9 20190 19567.6 26068.6 25928.7
          25653.2 25251.7 24740.5 24144.9 23501.1 22856.9 22268.4 21790.6 26818.5 26703.6 26478.6 26152.8
          25741.8 25267.8 24760 24254.2 23789.4 23401.5 27383.5 27286.2 27095.9 26821.9 26478.1 26083.8
          25663.4 25244.5 24856.2 24524.4 27761 27674.6 27506.1 27264 26961.4 26615.3 26246.8 25878.9
          25535.2 25236.2 27949.8 27868.7 27710.6 27483.9 27200.7 26877.3 26533 26188.7 25865.5 25581.8
          12458 11920.6 10827.9 9143.74 6813.97 3768.44 -72.0327 -4775.82 -10349.5 -16622.3 12553.9 12006.2
          10890.2 9163.59 6761.14 3593.2 -453.506 -5507.19 -11678 -18952 12758.7 12192.6 11034.4 9230.05
          6691.93 3290.09 -1162.89 -6937.75 -14433.7 -24237.8 13095.6 12507.1 11297 9394.34 6678.91 2959.35
          -2072.51 -8946.96 -18707.4 -33879.7 13592.3 12983.6 11725.1 9725.93 6826.88 2758.81 -2948.64 -11206.7
          -24186.8 -49441.4 14273.2 13653.6 12365.8 10300.5 7259.82 2894.57 -3439.2 -13056.5 -29185 -62722.4
          15151 14536.3 13253.4 11181.2 8094.74 3584.66 -3131.13 -13702.4 -32258.3 -72645.3 16219.5 15629.4
          14395.9 12397.1 9404.86 4999.67 -1616.47 -12037.4 -29469.5 -59229.9 17450.5 16905 15766.3 13925.5
          11179.8 7162.59 1202.41 -7921.58 -22091.1 -41650.7 18796.5 18311.7 17304.2 15689 13312.1 9906.9
          5018.41 -2085.38 -12234.4 -24215.3 20197.9 19782.8 18926.5 17572.7 15625.2 12934.1 9288.03 4465.91
          -1435.49 -6823.46 21592.8 21248.4 20544.8 19451.5 17921.6 15895.6 13321.4 10225.8 6908.55 4295.41
          22924.8 22645.9 22081.7 21220.7 20049.2 18560.2 16774 14784.3 12834.7 11379.6 24148.6 23925.9
          23479.7 22810.1 21921.7 20831.2 19581 18261 17030.4 16110.2 25231.2 25054 24702.1 24181.4
          23504.8 22696.3 21799 20882.4 20046 19403.5 26150.8 26008.8 25728.7 25319 24794.8 24180.5
          23512.7 22842.6 22233.4 21749 26894.5 26778.5 26550.8 26220.4 25802.3 25318.5 24799 24281.3
          23808 23418.7 27455.4 27357.4 27165.7 26889.3 26541.8 26142.8 25716.8 25292.8 24901.3 24570
          27830.2 27743.6 27574.4 27331.2 27026.8 26678.4 26307.4 25937.5 25593 25295.3 28017.8 27936.6
          27778.2 27550.8 27266.7 26942.1 26596.5 26251.5 25928.4 25646.3 12708.7 12179.2 11102.2 9441.29
          7142.58 4137.04 349.588 -4277.06 -9725.16 -15778.6 12804.7 12264.8 11164.2 9460.15 7086.97 3955.35
          -44.6424 -5029.33 -11078.6 -18112.1 13008.6 12450 11306.3 9522.22 7008.18 3632.21 -792.7 -6526.63
          -13927.2 -23458 13341.8 12760 11562 9674.1 6970.76 3252.31 -1799.61 -8718.57 -18508.8 -33473
          13829.9 13226.1 11974.9 9979.54 7068.55 2949.2 -2892.14 -11440.8 -24973.9 -51018.6 14496 13878.2
          12589.6 10509.9 7416.16 2903.02 -3804.24 -14355.3 -32993.1 -74666.1 15352.7 14735.5 13441 11329.7
          8132.63 3329.25 -4171.28 -17039.4 -43979.2 -133036 16395.4 15798.3 14541.6 12478.2 9315.58 4461.21
          -3409.73 -17785.8 -49896 -141419 17598.9 17042.8 15872.2 13949.2 10996.7 6447.86 -971.827 -14561.1
          -44126.3 -118484 18918.9 18421.6 17379.1 15678.5 13097.2 9190.74 2993.76 -7876.99 -30128.6 -82758
          20298.3 19870.9 18982 17553.4 15439.7 12377.8 7887.44 1107.46 -9176.87 -21778.9 21675.7 21320.9
          20590.5 19439.7 17792.3 15530.8 12494.6 8532.93 3795.13 -252.042 22994.7 22707.6 22123.5 21222.3