<?xml version="1.0"?>
<VTKFile type="UnstructuredGrid" version="0.1" byte_order="LittleEndian">
  <UnstructuredGrid>
    <Piece NumberOfCells="3800" NumberOfPoints="4620">
      <CellData Scalars="p (Pa)">
        <DataArray type="Float32" Name="p (Pa)" NumberOfComponents="1" format="ascii">
          -22721.6 -28003.4 -33014.2 -37257.1 -38679.3 -33056.9 -26647.2 -21742.8 -18608 -17097.1 -25776.5 -31311.5
          -36497.5 -41254 -44068.7 -35476.3 -27756.8 -22376.9 -19054.2 -17471.5 -32582.7 -38633.4 -43392.2 -46220
          -44973.9 -36930.6 -29067.1 -23364.3 -19806.1 -18107.8 -45036.2 -52847.3 -57468.2 -58488.3 -52591.9 -41158.8
          -31399.4 -24729.9 -20694.5 -18793.2 -66872.4 -81041.5 -87483 -90470.8 -75335 -50334.2 -34910 -26168.3
          -21337.5 -19142.3 -104298 -141367 -154774 -182651 -136739 -63687.3 -37940.4 -26673.3 -21060.9 -18603.4
          -168902 -303074 -291147 -212912 -104664 -57032.5 -35534.2 -24797.4 -19190.3 -16707.2 -324155 -708065
          -315433 -148519 -79593.3 -47067.7 -30204.8 -20883.7 -15758.1 -13443.7 -724444 -363786 -160729 -93775.7
          -56761.9 -35614.4 -23051.3 -15485.8 -11127.4 -9118.46 -707967 -202921 -88237.9 -54690.8 -36245.9 -23519.2
          -14879.2 -9217.85 -5793.13 -4176.04 -680936 -118591 -49251.7 -30108.4 -19791.6 -12284.4 -6716.16 -2791.58
          -298.732 910.272 -102956 -43848.4 -23267.3 -13634.5 -7594.85 -3030.03 519.101 3143.59 4873.89 5732.17
          -28680.1 -15803.2 -7656.53 -2431.76 1286.4 4190.78 6500.23 8251.62 9432.53 10027.1 -6496.22 -1674.7
          2328.78 5398.98 7791.1 9717.6 11268.9 12458.5 13269.3 13680.7 4552.38 6871.07 9096.23 11005.1
          12596.7 13917.6 14993.5 15823.2 16391.1 16680.2 11292.8 12516.4 13831.4 15062.1 16149.5 17080.6
          17849.8 18446.5 18855.9 19064.7 15683.4 16349.2 17154.9 17973.1 18737.2 19413.6 19982.3 20427
          20733.2 20889.5 18534.1 18903.1 19417.9 19985.8 20545.6 21058.4 21497.9 21845 22085.2 22208
          20256.7 20472.6 20828.5 21253.5 21693.2 22108.1 22470.3 22759.1 22959.9 23062.9 21069.8 21220.5
          21506.2 21866.4 22250.4 22619.6 22945.5 23207 23389.4 23483.1 -29080.9 -36846.2 -46442.9 -58865.8
          -70423.8 -54067.8 -40240.3 -31708.2 -26886 -24698.8 -32425.1 -40572.8 -51335.3 -69632.5 -109069 -62203
          -42179.6 -32458.2 -27361.7 -25097.5 -39802 -48174.1 -57941 -69250.7 -76365.4 -57038.9 -42129.8 -33122.8
          -28044.5 -25728 -53416.3 -62871.6 -73485.6 -83884.3 -79483.8 -58824 -43433.1 -34074.4 -28760 -26307.8
          -77685.7 -92050.2 -114674 -165098 -144282 -73617.5 -46950.3 -35017.3 -28986.2 -26274.7 -119743 -155024
          -254880 -708726 -680449 -116733 -50500.8 -34396.2 -27673.1 -24774.1 -186040 -323501 -759166 -711055
          -179235 -71828.6 -41890.4 -29771.7 -23840.7 -21203.9 -306846 -704122 -632255 -189748 -83850.4 -48192.5
          -31801.9 -23092.3 -18308.4 -16113.2 -708363 -707176 -186373 -84678.9 -49784.7 -32262.9 -22015.9 -15752.2
          -12060.7 -10323.8 -698380 -177906 -76864.5 -45291.9 -29524.7 -19622.7 -12975.1 -8541.33 -5796.61 -4476.94
          -141608 -67093.9 -37728.2 -23764.2 -15289.3 -9332.49 -4991.58 -1920.53 53.1271 1020.5 -43456.9 -27744.7
          -16812.4 -9772.2 -4837.65 -1106.2 1754.94 3859.41 5248.97 5940.61 -14055.3 -8866.41 -3961.3 -90.3453
          2939.07 5358.8 7277.19 8723.49 9695.67 10184.8 -330.056 1986.5 4537.33 6826.68 8768.58 10387.6
          11702.4 12709.4 13393.8 13740.5 7765.35 8971.65 10433.1 11864 13153.6 14267.7 15190.3 15905.2
          16394.6 16643.5 13075.8 13740.9 14625.1 15555.2 16437.5 17224.7 17889 18409 18767.1 18949.8
          16682 17050.7 17603.7 18228.7 18851.4 19424.9 19918.2 20308.6 20579.1 20717.4 19091.6 19292.9
          19651.7 20090.5 20549.5 20985.6 21368.1 21674.3 21887.7 21997.2 20576.7 20687.4 20937.7 21269.2
          21631.7 21985.8 22301.7 22557.2 22736.3 22828.5 21286 21356.8 21558.5 21840.8 22158.6 22474.3
          22758.9 22990.6 23153.5 23237.5 -35370.4 -46340.4 -63053.5 -94051 -153384 -88759.7 -57712.9 -43239.6
          -36096.4 -33045 -39133.1 -50852.8 -71718.4 -141050 -644985 -130714 -62606.5 -44435.6 -36767.5 -33610.1
          -47394 -58910 -76087.8 -105553 -153939 -89063.3 -58929.5 -44777.1 -37656.3 -34530.1 -63206.3 -74511.3
          -89677.2 -105498 -105625 -77930 -57383.3 -45395 -38669.6 -35483.1 -93973.5 -106346 -125857 -139812
          -120931 -81428.9 -58188.1 -45975.9 -39136.4 -35642.1 -157118 -180918 -243982 -242854 -175873 -88196.9
          -56976.8 -44042.9 -37167.5 -33390 -281351 -400085 -711481 -255701 -115330 -67396.3 -46564.2 -36231.7
          -30413.9 -27404 -279419 -706562 -723897 -160490 -73936.7 -47009.4 -33855.2 -26384.2 -21951.5 -19743.6
          -198965 -233048 -149168 -72368.5 -44286 -30349.2 -22088.8 -16869.5 -13646.1 -12059.1 -124583 -86565.4
          -57737.3 -37339.7 -25213.9 -17413.3 -12120.3 -8515.18 -6217.83 -5084.2 -50174.6 -38740.9 -27294.9 -18474.2
          -12093.8 -7405.28 -3943.03 -1460.93 160.834 967.164 -20335 -16155.7 -10922.9 -6323.98 -2601.98 358.69
          2666.65 4380.08 5521.55 6093.85 -5039.04 -3150.81 -474.231 2151.1 4456.38 6394.2 7961.81 9154.23
          9960.2 10367.2 4218.65 5198.65 6697.45 8291.2 9780.34 11085.9 12171.4 13011.8 13586 13877.7
          10372.4 10915.4 11808.6 12821.4 13815.9 14718.3 15485.4 16087.8 16502.8 16714.5 14656.7 14957.9
          15509.8 16175.6 16859.3 17498.8 18053.6 18494.7 18800.8 18957.6 17667.5 17825.1 18173.4 18624.6
          19109.2 19576.3 19989.4 20321.9 20554.4 20673.9 19724.9 19796.4 20021.8 20340.3 20698.8 21054.9
          21375.8 21637.2 21821.2 21916.2 21012 21034.8 21189.9 21431.2 21715.2 22004.8 22270.2 22488.6
          22643.3 22723.3 21632 21632.9 21756 21961.7 22211 22469.4 22708.7 22906.8 23047.6 23120.7
          -40644.7 -54619.6 -77547.2 -122988 -212286 -118257 -74182.9 -54710.2 -45470.8 -41600.4 -44782.8 -60040.8
          -89470.1 -189311 -706697 -177279 -81457.9 -56648.3 -46636.7 -42589.3 -53823.3 -69422 -95981.6 -149330
          -244093 -125250 -77541.2 -57871.4 -48537.4 -44435.4 -71380.8 -86517.9 -108442 -136081 -139110 -100590
          -74313.6 -59830.9 -51442.2 -46992.9 -109755 -123114 -135092 -140476 -122611 -93355.9 -73780.3 -63085.1
          -55229.1 -49303.8 -231454 -241267 -193440 -155913 -118591 -86950.5 -70223.1 -63724.8 -56468.8 -47772.7
          -715209 -741547 -302731 -145572 -93408.4 -68306.7 -55361 -47976.3 -41822.3 -36961.9 -272290 -705251
          -226315 -101695 -64327.9 -47350.5 -37990.9 -31973.1 -27556.7 -24850.1 -109222 -154136 -91212.4 -56957.8
          -39606 -29635.5 -23336.6 -19022.8 -16030.9 -14398.9 -55361.6 -55916.3 -42456.5 -30461.1 -22015 -16147.2
          -11994 -9019.32 -7000.17 -5950.32 -26444.3 -24897.7 -19713.6 -14248.5 -9671.12 -6075.74 -3322.99 -1282.91
          97.709 803.237 -10001.6 -8995.5 -6420.12 -3486.97 -781.881 1512.83 3363.91 4772.19 5730.26 6217.92
          375.097 950.185 2375.66 4099.17 5793.66 7307.42 8573.37 9556.35 10230.4 10574 7411.35 7733.68
          8572.21 9641.88 10746.4 11771.9 12652.9 13348.3 13829.2 14075 12393 12564.6 13075.2 13763.8
          14505.7 15216.7 15841.1 16341 16689.4 16868.2 15989.3 16066.2 16381.3 16836.4 17347.6 17852.2
          18304.3 18670.9 18928.3 19061 18573.8 18589.8 18784 19091.9 19454.3 19822.7 20159.3 20435.7
          20631.3 20732.5 20366.1 20343.5 20462.9 20678.7 20946.3 21226.7 21487.9 21705 21859.8 21940.2
          21498.6 21453.3 21529 21690.7 21902.1 22129.7 22345.3 22526.5 22656.5 22724.3 22047.2 21991.4
          22047 22183.7 22368.8 22571.6 22765.8 22930 23048.3 23110.1 -44100.4 -60100.1 -86243.6 -134974
          -218783 -130300 -85178.6 -64085.7 -53764.6 -49365.7 -48505.9 -66754 -102669 -216106 -718435 -196577
          -94832.7 -67231.9 -55788 -51051 -57969.7 -79146.8 -124436 -270352 -724503 -197034 -98245 -71532.3
          -59928.1 -54639 -75147.8 -97997.1 -140290 -234703 -229467 -134918 -96109.7 -78971.9 -68175.3 -60922.1
          -110467 -134620 -156592 -174376 -148866 -116672 -100439 -97554.2 -87175.9 -70620.3 -221273 -256606
          -195576 -155357 -123569 -104357 -103888 -139161 -130104 -77496 -719097 -706630 -252860 -130916
          -94965.2 -80162.5 -77761.9 -76977.9 -66817.1 -52597 -214176 -706768 -173342 -87978 -63307.8 -52298.6
          -47098.1 -42459.2 -36510.6 -31714.4 -81575.5 -124480 -73050.3 -49778.4 -37813.3 -30780.7 -26275.3 -22571.2
          -19257.1 -17165.4 -38354.9 -42381.3 -34048.8 -26079.3 -20092 -15735.8 -12511.1 -9959.37 -7998.66 -6894.49
          -17283.2 -17589.8 -14801.3 -11227.3 -7932.73 -5190.53 -2991.84 -1264.52 -18.9589 644.65 -4669.87 -4599.3
          -3231.67 -1308.42 659.157 2433.28 3926.43 5106.85 5938.43 6371.87 3725.73 3782.99 4551.31 5692.08
          6933.72 8111.58 9135.86 9954.56 10528.6 10825.4 9640.31 9649.57 10101.7 10813.8 11626 12425.5
          13138.2 13714.9 14120.4 14329.8 13935 13905.7 14173.9 14631 15176 15729.4 16233.5 16646.4
          16938.5 17089.6 17086.7 17030.1 17185.3 17483.7 17857.1 18248.2 18611.6 18913.1 19127.9 19239.5
          19376.9 19301.5 19385.5 19582.8 19844.9 20128.5 20397.6 20623.8 20786.2 20870.9 20977.6 20889.7
          20929.1 21062.5 21253.6 21467.7 21675.1 21851.8 21979.7 22046.7 21994.2 21898.8 21912 22007.8
          22156.5 22328.9 22499.1 22645.8 22752.7 22808.9 22488.4 22389.3 22390.4 22468.7 22597.6 22750.5
          22903.2 23035.7 23132.7 23183.8 -45365.7 -61776.4 -86787.9 -124022 -148564 -116785 -87409.8 -69443.2
          -59479.3 -54985.8 -49918 -69620.4 -107954 -205560 -262678 -146212 -95971 -73541.5 -62327.2 -57308.9
          -59698.5 -87024.3 -177320 -717786 -718530 -205671 -108802 -81870 -69067.5 -62643 -75932 -109193
          -215656 -722361 -317227 -163641 -117205 -100344 -86059.3 -73509.8 -103825 -143074 -201188 -301931
          -198721 -151109 -142149 -178764 -158890 -97493.9 -158880 -254498 -233303 -196702 -155647 -144210
          -200593 -712522 -690106 -146440 -254277 -707225 -274643 -146656 -116573 -113924 -160925 -181525
          -133304 -74033.5 -125529 -207953 -127123 -86023 -70091.1 -64808 -68391.3 -64043.5 -49556.4 -38724.8
          -62230 -74002.6 -59854.2 -46737.1 -38745.6 -34107.5 -31520 -27701.1 -22705.8 -19481.9 -30645.4 -32471.5
          -28580.5 -23503.6 -19258.4 -16013.3 -13481.5 -11050.7 -8823.52 -7503.67 -12850.8 -13197.1 -11595.7 -9168
          -6735.32 -4592.55 -2775.28 -1216.9 4.56529 683.135 -1684.64 -1826.23 -1017.93 316.094 1795.33 3204.52
          4446.68 5477.73 6236.33 6641.99 5862.55 5736.13 6173.64 6963.11 7899.26 8836.67 9684.89 10385.6
          10890 11155 11213.3 11082.1 11319.6 11804.2 12412.5 13045.3 13630.8 14117.3 14465.9 14647.9
          15113.5 14979.9 15101.6 15403.6 15806.1 16239.9 16649.7 16993.9 17241.2 17370.4 17984.5 17850.9
          17902.6 18090.7 18361 18663.3 18955.4 19203.8 19383.5 19477.6 20076.1 19943.4 19951.9 20067.8
          20252.4 20467.9 20681.3 20865.4 20999.7 21070.3 21541.2 21409.6 21391.3 21461.9 21591.9 21751.4
          21913.6 22055.7 22160.3 22215.5 22473.5 22342.6 22308.8 22352.7 22450.3 22576.4 22707.7 22824.4
          22911 22957 22927.2 22796.6 22755.7 22787.3 22869.7 22980.1 23097 23201.7 23279.8 23321.4
          -44577.6 -59651.8 -79830.5 -103374 -115190 -103355 -85156 -70772.2 -61689.1 -57358.3 -48929 -66554.4
          -93654.8 -133120 -146701 -119113 -92615 -75096.2 -64644.6 -59698.3 -58397.5 -81997.3 -130657 -253961
          -240792 -149181 -106302 -84383.7 -71267.6 -64773.5 -74732.5 -108507 -213441 -710941 -289503 -166260
          -124441 -104660 -84920.5 -73750.3 -102084 -149900 -277363 -711521 -290998 -184480 -165987 -186722
          -118645 -88109.8 -151039 -264763 -387611 -353304 -233749 -210585 -306416 -740613 -204788 -100107
          -220896 -707756 -729580 -231205 -203556 -230504 -707825 -700054 -139139 -70557.9 -116408 -173613
          -162237 -101661 -90544.1 -91721.4 -126411 -108723 -54829.2 -39160.2 -59226.3 -64625.5 -59359.5 -48292.1
          -42474.7 -39284.2 -38700.7 -32772.5 -23836.7 -19524.6 -28637.6 -28882.6 -26385.1 -22480.8 -19155.6 -16456.7
          -14209 -11478.4 -8723.72 -7183.7 -11002.1 -10958.3 -9730.65 -7826.29 -5849.96 -4018.32 -2372.83 -837.451
          431.756 1138.9 -33.7004 -116.68 490.906 1536.1 2744.04 3943.91 5045.49 5999.46 6723.29 7115.12
          7254.62 7094.36 7386.94 7987.9 8742.34 9529.46 10265.7 10891.1 11350.5 11594.6 12349.2 12164.8
          12292.1 12643.4 13122.1 13643.6 14141.6 14565.1 14873.4 15036 16028.9 15844.7 15882.3 16086.3
          16393.1 16742.6 17084.3 17377.8 17591.8 17704.5 18723.3 18547.2 18534.5 18648.9 18846.5 19083.7
          19322.1 19529.7 19682.2 19762.8 20681.2 20513.9 20472.3 20531.2 20658.9 20822.8 20992.9 21143.8
          21255.7 21315 22051 21891 21832.6 21857.3 21941 22058.1 22184.2 22298.3 22383.8 22429.5
          22922.2 22767.2 22699.5 22704.4 22762.3 22851.5 22951.3 23043.3 23113.1 23150.5 23346.2 23193.6
          23121.7 23117.5 23163.4 23239.7 23327.2 23408.8 23471.1 23504.6 -42503.1 -55866.3 -72099.2 -89052.4
          -98940 -95106.8 -81850.3 -69156.5 -60552.4 -56353.8 -46595.3 -61751.9 -81590.5 -104374 -116407 -109508
          -89839.5 -73437 -63089.8 -58186.3 -55708.6 -74976.4 -104349 -146238 -156732 -139198 -104834 -81606.8
          -67968.7 -61630.9 -72434.3 -99595 -152988 -273797 -212764 -165941 -121383 -93419.5 -75050.2 -66149.7
          -103641 -148406 -285158 -728248 -306169 -192664 -146022 -115671 -84848.8 -70170.3 -166050 -271000
          -716050 -720452 -385626 -278582 -233727 -175218 -94041.6 -68332.5 -258286 -357881 -705020 -352173
          -761839 -706205 -701617 -169520 -74605.5 -52401.1 -139918 -147253 -170560 -123874 -143821 -133768
          -119463 -65534.2 -41254.4 -32269.1 -67647 -64371.7 -60494.2 -51154.9 -47383 -42139.9 -36506.8 -27073.1
          -20051.3 -16663 -30571.3 -28505.1 -25654.5 -21957 -18839.9 -15816.3 -12902.6 -9705.28 -7090.51 -5687.9
          -10681.8 -9985.95 -8614.65 -6788.28 -4913.77 -3091.63 -1387.52 190.692 1429.87 2104.74 882.732 968.716
          1579.89 2543.13 3654.14 4781.59 5837.77 6759.2 7453.04 7826.28 8221.88 8088.76 8338.84 8859.76
          9527.13 10238.5 10915.7 11497.4 11926.5 12154.7 13213.6 13015.9 13093 13374.5 13780.1 14235.7
          14679.8 15062.6 15343.6 15492.3 16763.7 16556.8 16548.9 16695.3 16942.4 17237.5 17533.6 17792.2
          17982.7 18083.6 19341.4 19142.6 19091.5 19159.1 19308.4 19501 19701.5 19879.9 20012.5 20083.1
          21205.7 21018.3 20944.8 20965.5 21053.6 21180.6 21319 21445.2 21540.1 21591 22506.9 22329.4
          22244.2 22236.8 22287.2 22372.9 22471.8 22564.5 22635.3 22673.5 23333.4 23162.9 23071.6 23048.5
          23077 23138.4 23213.9 23286.7 23343.1 23373.8 23735.4 23568.3 23474.5 23444.2 23462.7 23512.8
          23577.4 23640.9 23690.6 23717.8 -39777.1 -51710.3 -65503.8 -79820.6 -90573.4 -91498.3 -78476.4 -65427.3
          -56762.7 -52612.9 -43646.2 -57005.5 -73337.8 -92046.2 -109205 -116828 -90213 -70161.6 -58851.5 -53820.8
          -52456.4 -68968.6 -91220.1 -120878 -154527 -199444 -115133 -78331.6 -62115.4 -55579.4 -69645.4 -91781.3
          -125325 -175662 -208244 -231468 -127443 -83723 -64372.9 -56536 -107563 -139839 -196512 -297122
          -247960 -181871 -119538 -83953.3 -63864.7 -55022.1 -230840 -283283 -386257 -424254 -301717 -174894
          -120700 -83068.4 -59206.4 -49190.3 -744180 -732418 -707289 -708135 -706087 -200696 -135335 -70305.5
          -46569.6 -37888.1 -268022 -231291 -186202 -153959 -132381 -78492.4 -58767.6 -39969.9 -29167.9 -24406.7
          -92356.2 -78632.5 -63678.4 -51975.3 -43440 -33287.2 -26187.2 -19600.1 -14957.4 -12647.5 -34866.8 -30489.5
          -25492.1 -20815.9 -16817 -12983 -9710.34 -6802.46 -4635.71 -3497.93 -10743.6 -9543.86 -7730.65 -5646.04
          -3581.66 -1605.38 169.536 1697.36 2832.85 3436.6 1624.46 1819.95 2510.62 3513.34 4642.84 5778.82
          6828.15 7721.01 8377.28 8725.41 9030.63 8914.72 9160.7 9661.89 10302.7 10986.7 11636.9 12191.9
          12598 12812.7 13936.5 13732.9 13787.6 14036.8 14406.9 14828.6 15242.6 15600.5 15863.1 16002
          17382.5 17164.2 17131.9 17246.6 17459.9 17722.8 17991 18227.2 18402.1 18494.8 19869.3 19658.4
          19585.2 19624.8 19744.2 19908.5 20084.3 20243 20362.1 20425.7 21662.1 21463.5 21370.6 21367
          21429.4 21531.6 21648.4 21757.3 21840.3 21885.1 22911.2 22723.5 22621.3 22592.7 22620.5 22684.3
          22764 22841.3 22901.5 22934.2 23703.9 23523.9 23417.3 23375.1 23383.1 23424.6 23482.5 23541.1
          23587.7 23613.4 24089.2 23913.2 23804.9 23756.5 23755.5 23786.7 23834.5 23884.5 23924.8 23947.1
          -36730.3 -47494.7 -59562.2 -72232.2 -83497.7 -88161.4 -72801.6 -59273.3 -50873.3 -46966.3 -40364.3 -52494.2
          -67041.3 -85009.2 -110090 -153563 -91261.5 -64598.6 -52562.2 -47639.9 -48697 -63912.4 -84430 -117476
          -207427 -705820 -155567 -74731.5 -54819.3 -48204.5 -65210.9 -86032.2 -117722 -177290 -323873 -711896
          -170379 -77107 -54531.2 -47172.3 -102939 -133438 -184148 -290254 -306591 -212887 -105412 -66326.2
          -49897.7 -43383.9 -232637 -276438 -326878 -277718 -198164 -121000 -78669.3 -55143.8 -42353.2 -36755.3
          -711295 -706307 -717043 -250765 -164677 -88241.4 -60640.3 -42174.6 -32142.1 -27724.7 -715884 -719038
          -199468 -100684 -71295 -48760.4 -35939 -26513.7 -20602.8 -17800.3 -126995 -119816 -65533.8 -43975.4
          -32886 -24394.6 -18280.1 -13542.5 -10322.8 -8711.21 -35484 -33033.4 -24590.5 -18188.6 -13441.6 -9518.32
          -6354.06 -3831.41 -2057.56 -1144.51 -9401.01 -8718.58 -6568.14 -4160.07 -1896.33 158.378 1925.82 3361.42
          4383.7 4915.74 2730.28 2783.03 3490.96 4546.65 5718.75 6873.37 7915.76 8777.51 9395.47 9718.48
          9873.23 9713.22 9943.7 10441.4 11079.7 11757 12394.6 12931.8 13320.1 13523.7 14599.9 14379.5
          14418.1 14652.3 15007.7 15414.5 15813.5 16157 16407.8 16540 17924.3 17697 17650.9 17749.3
          17945.6 18191.8 18444.8 18668.1 18833.3 18920.9 20325.8 20108.5 20023.3 20047.6 20150.5 20298.7
          20460 20606.9 20717.5 20776.6 22058.3 21854.1 21750.5 21733 21780.1 21867.4 21970.7 22068.7
          22144 22184.8 23265.6 23072.8 22960.8 22919.5 22933.2 22983.1 23050.3 23117.5 23170.5 23199.6
          24031.9 23847.1 23731.3 23677.2 23671.9 23700.3 23746.4 23795.5 23835.4 23857.5 24404.4 24223.6
          24106.5 24046.6 24032.8 24051.4 24087.7 24128.4 24162.2 24181.1 -33557.8 -43175.3 -53355.5 -63149.3
          -70273.2 -70142.4 -60101.3 -50134.8 -43477.7 -40279.6 -36910.3 -47895.7 -60445.2 -74776 -89838.1 -93134.4
          -69928.2 -53458.2 -44424.3 -40479.5 -44550.5 -58880.1 -78171.8 -110092 -177313 -195183 -95053.5 -59157.4
          -45379.9 -40223 -59435.2 -80858 -119049 -237333 -724907 -706632 -137261 -62171.9 -44237.3 -38378.7
          -92259.9 -129146 -227306 -753193 -707383 -197266 -84235 -51769.9 -39062.6 -34145.6 -203354 -268620
          -349556 -321167 -192461 -94152.7 -57770 -40555.6 -31758.6 -27940.2 -708354 -705022 -333421 -153841
          -93290.8 -58318.7 -40283.2 -29491 -23302.1 -20466 -229798 -701042 -159834 -76671.6 -50039 -34595.6
          -24986.6 -18549.7 -14546.3 -12626.8 -73828.3 -105636 -56987.9 -36350.2 -25417.2 -18011.2 -12761.4 -8990.9
          -6521.56 -5299.03 -26140.9 -28370.7 -21221.2 -14961.2 -10173.4 -6389.71 -3436.53 -1207.27 300.85 1062.8
          -6356.78 -6596.04 -4790.86 -2437.14 -157.755 1895.74 3614.75 4962.04 5893.7 6370.43 4182.48 3995.36
          4594.6 5626.44 6804.4 7962.73 8992.39 9825.85 10412.2 10715 10744.7 10515.1 10708.6 11194.8
          11832.7 12509.6 13141.4 13667.4 14043.2 14238.8 15209.2 14967.9 14992.6 15219.8 15571.4 15974.6
          16368.3 16705 16949.3 17077.5 18395.7 18162 18109.2 18201.7 18392.5 18633.1 18880.2 19097.7
          19258.1 19343.1 20715.8 20496.2 20406.2 20424.7 20521.2 20662.7 20817.6 20958.8 21065 21121.8
          22396.5 22190.8 22083.1 22059.5 22099.6 22179.7 22276.3 22368.6 22439.7 22478.3 23570.3 23376
          23259.8 23212.4 23218.9 23261.4 23321.7 23383.1 23432 23458.9 24316.1 24129.6 24009.6 23949.2
          23936.8 23957.7 23996.9 24040.2 24076 24096 24678.7 24496.3 24374.8 24308.7 24287.7 24298.8
          24328.3 24363.2 24392.9 24409.7 -30485.3 -38899.4 -46952.5 -53372.5 -56288.9 -54106.1 -47505.5 -40759.8
          -35956.8 -33555.2 -33534.2 -43193.8 -52976.7 -61631.8 -66014.5 -62683.1 -51782.8 -42287.4 -36249.6 -33408.3
          -40339.7 -53192.8 -68168.8 -85511.6 -94390.8 -85828.5 -60249.6 -44417.7 -36174.3 -32651.9 -52851.1 -73257.1
          -105197 -173127 -177911 -138583 -68709.4 -44462.2 -34475.8 -30554.2 -76228.6 -118066 -229208 -719289
          -213798 -96472.5 -56018.6 -38460.6 -30127.2 -26652.2 -125577 -257381 -707855 -705307 -150690 -67436.2
          -42337 -30346.9 -24058.9 -21284 -226556 -705116 -717020 -170958 -73512.6 -43597.9 -29615.3 -21673
          -17139.6 -15051.8 -102386 -184881 -128908 -65178.5 -39551.2 -26281 -18296.3 -13188.8 -10079.2 -8597.89
          -45354.1 -57019 -44366.3 -29826.3 -20074.1 -13417.5 -8764.78 -5538.13 -3478.99 -2472.55 -18148.9 -20183.7
          -16698.3 -11751.5 -7351.7 -3792.72 -1037.37 990.284 2330.48 2998.27 -3441.76 -4010.93 -2795.31 -727.007
          1461.01 3452.19 5112.98 6392.19 7261.02 7700.36 5526.62 5204.44 5676.5 6647.89 7811.34 8963.19
          9981.39 10795 11360 11649.2 11502.3 11230.9 11397 11875.9 12518.6 13201.3 13834.4 14356.3
          14725.7 14916.7 15714.8 15464.3 15486.4 15717.5 16076.2 16485.5 16882.3 17219 17461.6 17588.3
          18779.1 18545.9 18495.8 18592.7 18788.3 19032.7 19281.6 19499.3 19659.1 19743.3 21033 20815.8
          20728.5 20749.5 20848.1 20990.8 21145.9 21286.5 21391.9 21448.1 22674.3 22470.9 22364.6 22341.7
          22381.7 22461.1 22556.4 22647.2 22717.1 22754.9 23823.7 23631.1 23515.1 23466.9 23471.9 23512.4
          23570.4 23629.7 23677 23703 24554.9 24369.5 24249.1 24187.1 24172.2 24190.3 24226.6 24267.4
          24301.3 24320.3 24910.7 24729 24606.7 24538.6 24514.8 24522.7 24549 24581.2 24608.9 24624.6
          -27796.1 -35080.6 -41156.1 -44811 -45171.2 -42323.9 -37505.4 -32763.8 -29296.7 -27518.9 -30658.1 -39005.2
          -46029 -50173.9 -50059.9 -45870.8 -39254 -33285 -29194.7 -27173.2 -36934 -47989.4 -57559 -63175.2
          -61063.7 -53014.8 -42045.4 -33695.2 -28573.1 -26184.6 -47919.4 -65158.6 -80950.1 -91577.2 -79306.2 -61556.3
          -43472.8 -32640.6 -26731.3 -24112.5 -66282.6 -99745.4 -129668 -160669 -89822.1 -56803.1 -38825.6 -28700.5
          -23167 -20700.7 -98391 -201105 -222903 -163378 -77125.5 -46034.2 -31149.2 -22866 -18247.3 -16152.5
          -152709 -703245 -205305 -91775.1 -51356.7 -32596.3 -22276.5 -16128.5 -12561 -10906.6 -73139.2 -133857
          -80407.1 -48427.8 -30766.9 -20228.9 -13563.2 -9276.57 -6678.72 -5445.8 -34371 -43204.7 -34441.9 -23970.8
          -15829.2 -9934.68 -5752.32 -2873.99 -1058.73 -178.671 -13916.8 -15799.4 -13252.1 -9089.17 -5065.76 -1714.14
          888.206 2783.07 4019.58 4630.2 -1669.63 -2280.02 -1251.82 672.413 2795.77 4748.43 6372.56 7610.23
          8441.15 8857.91 6378.28 6046.5 6503.94 7475.15 8651.88 9815.47 10836.4 11643.6 12198.5 12480.5
          11992.2 11730.6 11917 12422.3 13091.9 13795.9 14441.6 14968.4 15337.9 15527.9 16053.3 15816.5
          15860.3 16116.1 16498 16925.7 17334.9 17678.4 17924 18051.6 19048.6 18827.1 18793.2 18907.8
          19119.7 19377.2 19635.4 19858.8 20021.5 20106.9 21267 21058.4 20981.9 21014.3 21123.3 21274.3
          21435.3 21579.7 21687.2 21744.3 22887.8 22690.3 22590.8 22574.7 22620.7 22704.8 22803.5 22896.3
          22967.4 23005.6 24024.3 23835.7 23724 23679.6 23687.7 23730.5 23790.1 23850.2 23897.8 23924
          24747.6 24565.2 24447.4 24387.5 24374.1 24393.1 24429.8 24470.6 24504.3 24523.2 25099.6 24920.4
          24800 24733.2 24710.1 24718.2 24744.4 24776.2 24803.5 24819 -25703.6 -32094.3 -36608.1 -38306.3
          -37192.5 -34083.3 -30141.8 -26505.8 -23859.8 -22493 -28656.5 -36078.5 -41016.2 -42256.3 -40090.1 -35811.1
          -30859.8 -26566.2 -23570.9 -22060.2 -35218 -45428.1 -51341.7 -51010.1 -45859.1 -38796 -31768 -26296.8
          -22737.1 -21008.5 -46760.9 -63778.5 -71195.8 -65904.4 -53412.2 -41401.8 -31645.1 -24986.1 -20959.4 -19072.7
          -65183.1 -99870.9 -104882 -84954.7 -57711.8 -40044.3 -28910.3 -21995.8 -17964.9 -16103.3 -92772.8 -189236
          -136162 -86155.5 -52457.8 -34267.7 -23798 -17517.9 -13890.8 -12217.4 -140359 -701866 -158098 -68584.3
          -39872.2 -25548.9 -17201.6 -12102.3 -9113.97 -7722.62 -66524.6 -124489 -68305.1 -40422.3 -25283 -16069.8
          -10167.4 -6368.67 -4074.93 -2989.88 -31555.2 -39382.8 -30357.7 -20574 -12963.4 -7425.83 -3505.05 -828.663
          844.126 1650.01 -12927.4 -14353.8 -11593 -7436.5 -3455.84 -158.196 2379.48 4206.35 5386.04 5964.48
          -1346.94 -1709.85 -482.653 1563.34 3759.35 5747.11 7378.03 8605.01 9420.04 9826 6515.27 6322.7
          6924.45 8011.04 9270.02 10485.4 11533.6 12351.1 12907.2 13188 12101.7 11918.7 12197.6 12786
          13520.5 14269.7 14943.5 15485.4 15861.7 16054 16174.1 15982.1 16082 16392 16818.9 17280.2
          17712 18069.3 18322.3 18452.9 19183.1 18987.7 18987.3 19135.6 19376.9 19657.3 19931.8 20165.8
          20334.6 20422.7 21410 21217.1 21160.5 21213.4 21340.8 21506.7 21678.7 21830.5 21942.4 22001.6
          23034.3 22846.6 22759 22755.4 22812.8 22906.2 23012 23109.7 23183.7 23223.4 24171.5 23989.3
          23885 23848.3 23863.4 23912 23975.9 24039.1 24088.7 24115.7 24894.3 24716.5 24603.7 24548.7
          24539.8 24562.5 24602 24644.8 24679.7 24699.2 25245.8 25070.3 24953.9 24890.9 24871.1 24882
          24910.2 24943.4 24971.6 24987.5 -24202.3 -29967.8 -33327.6 -33663.9 -31637.6 -28369.3 -24855.8 -21811
          -19639.2 -18522.3 -27568.4 -34596 -38051 -37247.5 -33829.7 -29447.4 -25180.4 -21688.1 -19281.4 -18066.5
          -35553.6 -46783.5 -50279.4 -45431.7 -38166.9 -31239.8 -25481.6 -21195 -18402.9 -17034.8 -51263.3 -77142.7
          -79581.4 -60152.1 -43941.7 -32753.3 -25050.1 -19908 -16756.4 -15258.5 -79081.9 -163025 -152730 -80008.1
          -48048.4 -32180.8 -23030.9 -17443 -14166.1 -12640.4 -106674 -245978 -143405 -75790.1 -44076.8 -28115.5
          -19127.9 -13772.7 -10679.5 -9250.01 -147698 -702724 -155273 -63361.8 -34948.8 -21444 -13805.4 -9214.23
          -6545.75 -5307.9 -71176.1 -126334 -67042.7 -37926.3 -22512.1 -13450.1 -7801.98 -4235.03 -2106.74 -1106.48
          -34902.7 -40643.9 -29939.7 -19312.9 -11363.4 -5758.46 -1887.14 707.173 2308.24 3073.91 -15361.6 -15400.6
          -11569.9 -6798.95 -2511.56 912.708 3482.24 5298.7 6456.98 7020.71 -2804.78 -2419.89 -557.512 1903.27
          4338.42 6450.38 8137.02 9382.72 10199.9 10604.1 5753.54 5926.56 6878.78 8223.85 9650.52 10965.6
          12068.1 12912 13479.2 13763.5 11752.2 11743.5 12208.5 12949.9 13794 14615.1 15332.8 15899.4
          16288.3 16485.6 16048.8 15941.4 16139.6 16537.7 17033.3 17543.3 18007.4 18384.4 18648.3 18783.7
          19175 19022.4 19074.6 19273.4 19556.7 19868.9 20165.8 20414.2 20591.5 20683.5 21461.7 21291.7
          21264.1 21346.1 21499 21685.2 21872.1 22034 22152.1 22214.1 23115.9 22941.4 22870.3 22883.7
          22956.7 23063 23178.5 23283 23361.3 23403 24267.6 24093.5 23999.2 23973 23997.8 24054.6
          24125 24192.7 24245.2 24273.6 24997 24824.8 24718.7 24670.6 24668.2 24696.5 24740.5 24786.5
          24823.5 24844 25351 25180.1 25069 25011.3 24996.7 25011.9 25043.7 25079.5 25109.4 25126.1
          -23022 -28307 -30810.2 -30249.7 -27705.1 -24374.6 -21103.6 -18391.2 -16494.2 -15526 -26879.7 -33809.3
          -36079.5 -33789.5 -29626 -25200.9 -21277 -18202.8 -16120.9 -15075.8 -37004.9 -51571.5 -52395.2 -42590.3
          -33599.7 -26613.5 -21383 -17655.6 -15261.9 -14092.5 -62215.7 -129946 -119774 -62477 -39601.8 -27968.9
          -20939.9 -16458.7 -13745.8 -12458.6 -133393 -703810 -642814 -110947 -45889.3 -27958.7 -19323.6 -14326.9
          -11441.5 -10103 -172132 -710693 -227441 -83758.9 -41587.9 -24719 -16100.5 -11165.2 -8358.86 -7069.14
          -202201 -705258 -194448 -70136.1 -33892.4 -19156.7 -11551.1 -7170.56 -4672.42 -3522.82 -95500.6 -139491
          -75791.9 -39659.4 -21615.5 -11897.3 -6188.8 -2701.15 -656.053 297.103 -47947.9 -46962.5 -32663.6 -19705.2
          -10697 -4720.15 -759.62 1826.94 3399.21 4145.14 -23411.1 -19246.9 -13028.6 -6990.84 -2094.17 1593.25
          4261.05 6104.26 7263.23 7823 -6873.87 -4590.7 -1437.97 1764.37 4592.13 6899.6 8677.23 9961.25
          10792.2 11200.1 3856.1 4802.73 6386.48 8146.76 9820.56 11274.3 12450.8 13332 13916.3 14207.2
          10899.2 11203.6 11967.6 12933 13926.5 14840.7 15613.4 16210.8 16615.6 16819.6 15682.6 15707.4
          16048.2 16565.8 17149.4 17719.3 18221.9 18622.2 18898.9 19040.1 19037.4 18944.5 19066.7 19329.8
          19664.4 20014.3 20337 20602 20789 20885.4 21433.5 21292.6 21300.9 21418.1 21601.1 21810.7
          22014.6 22187.9 22312.9 22378.2 23140.8 22981.6 22930.1 22963.5 23054.3 23175.2 23301.8 23414.1
          23497.2 23541.2 24318.3 24153.2 24070.3 24056 24091.8 24158 24235.8 24308.8 24364.7 24394.7
          25059.9 24893.7 24794.9 24754.8 24759.8 24794.6 24843.7 24893.4 24933 24954.6 25418.8 25252.6
          25147.2 25095.7 25086.9 25107.3 25143.2 25182.2 25214.1 25231.8 -21802.9 -26528.9 -28419.5 -27485.5
          -24827.4 -21581.6 -18503.8 -16003 -14273.2 -13394.9 -25563.8 -31664.7 -32963 -30484.1 -26425.6 -22235.1
          -18597.9 -15789.2 -13902.2 -12958.3 -35445 -47917 -45402.7 -37443.3 -29633.4 -23336.8 -18597.4 -15230.9
          -13074.6 -12022.4 -60281.4 -118213 -78607.4 -50424.2 -34149.1 -24361.4 -18129.4 -14103.9 -11658.8 -10497.3
          -133494 -685059 -173697 -70376.2 -38348.9 -24323.2 -16706.1 -12178.6 -9548.13 -8325.79 -217171 -704646
          -214336 -77944.2 -37938.3 -22029 -13956.1 -9350.83 -6737.31 -5537.33 -707618 -703422 -698122 -102124