<?xml version="1.0"?>
<VTKFile type="UnstructuredGrid" version="0.1" byte_order="LittleEndian">
  <UnstructuredGrid>
    <Piece NumberOfCells="3800" NumberOfPoints="4620">
      <CellData Scalars="p (Pa)">
        <DataArray type="Float32" Name="p (Pa)" NumberOfComponents="1" format="ascii">
          38773.9 38725.4 38630.4 38492.9 38318.8 38116 37893.9 37663.3 37435.2 37220.6 38786.1 38737.5
          38642.1 38504.1 38329.3 38125.6 37902.5 37670.7 37441.6 37226 38811.2 38762.2 38666.3 38527.4
          38351.5 38146.3 37921.5 37687.8 37456.9 37239.8 38850.1 38800.9 38704.4 38564.7 38387.5 38180.8
          37954.1 37718.5 37485.6 37266.9 38904.3 38854.9 38758.2 38617.9 38440.1 38232.4 38004.6 37767.6
          37533.5 37313.9 38974.9 38925.7 38829.2 38689.2 38511.7 38304.4 38076.9 37840.3 37606.5 37387.5
          39062.7 39014 38918.5 38780 38604.4 38399.4 38174.4 37940.4 37709.3 37493 39167.7 39119.9
          39026.3 38890.7 38718.8 38518.2 38298.3 38069.7 37844.2 37633.1 39288.8 39242.5 39151.8 39020.4
          38854 38660.1 38447.8 38227.5 38010.3 37807.1 39423.9 39379.5 39292.5 39166.7 39007.5 38822.4
          38620 38410.3 38203.8 38010.7 39570.1 39527.9 39445.3 39326 39175.4 39000.5 38809.7 38612.4
          38418.4 38237 39723 39683.3 39605.6 39493.6 39352.3 39188.7 39010.5 38826.6 38646 38477.1
          39878 39840.9 39768.4 39663.8 39532.4 39380.3 39215 39044.8 38877.7 38721.4 40029.8 39995.2
          39927.8 39830.8 39708.9 39568.1 39415.5 39258.5 39104.4 38960.1 40172.8 40140.7 40078.1 39988.2
          39875.3 39745.2 39604.3 39459.4 39317.2 39183.9 40301.7 40271.9 40213.7 40130.1 40025.3 39904.6
          39774 39639.8 39508.1 39384.3 40411.6 40383.6 40329.1 40250.9 40152.9 40040.2 39918.2 39792.9
          39669.8 39553.9 40498.1 40471.6 40420 40346 40253.3 40146.7 40031.4 39912.9 39796.4 39686.6
          40557.8 40532.3 40482.7 40411.5 40322.5 40220.1 40109.3 39995.5 39883.4 39777.7 40588.2 40563.2
          40514.7 40445 40357.8 40257.5 40149 40037.5 39927.7 39824 38592 38541 38441.1 38296.5
          38113.3 37899.8 37665.9 37423.3 37183.8 36959.3 38603.8 38552.6 38452.3 38307 38122.8 37908.1
          37672.8 37428.6 37187.6 36961.8 38628.2 38576.6 38475.6 38329.1 38143.3 37926.5 37688.8 37441.8
          37198.1 36969.9 38666.4 38614.4 38512.5 38364.8 38177.2 37958.1 37717.7 37467.6 37220.8 36990
          38719.9 38667.7 38565.2 38416.6 38227.8 38007 37764.5 37512.1 37262.9 37030 38790.1 38737.9
          38635.6 38486.9 38298.1 38077.1 37834.2 37581.3 37331.5 37098.3 38878 38826.3 38724.8 38577.5
          38390.4 38171.4 37930.7 37680.1 37432.7 37201.8 38983.7 38933 38833.4 38689 38505.7 38291.3
          38055.9 37811 37569.4 37344.1 39106.2 39057 38960.5 38820.6 38643.2 38436.1 38209 37973.1
          37740.9 37524.4 39243.6 39196.4 39103.9 38969.9 38800.3 38602.8 38386.7 38162.8 37942.7 37737.7
          39392.6 39347.8 39260.1 39133.2 38973 38786.8 38583.6 38373.7 38167.7 37976 39549.1 39506.9
          39424.5 39305.6 39155.6 38981.8 38792.7 38597.9 38407 38229.5 39708 39668.7 39591.9 39481.2
          39341.9 39180.9 39006.2 38826.5 38650.9 38487.5 39863.9 39827.4 39756.2 39653.7 39525 39376.5
          39215.7 39050.8 38889.6 38739.6 40011.2 39977.4 39911.4 39816.7 39697.9 39561.1 39413.2 39261.7
          39113.8 38975.8 40144.1 40112.7 40051.6 39963.8 39853.9 39727.5 39591 39451.3 39314.8 39187.3
          40257.5 40228.2 40171.1 40089.2 39986.8 39869.1 39742.1 39612.1 39485 39366.1 40346.9 40319.2
          40265.3 40188 40091.4 39980.5 39860.8 39738.3 39618.4 39506 40408.6 40382 40330.3 40256.2
          40163.5 40057.2 39942.5 39825 39710 39602 40440 40414 40363.4 40290.9 40200.3 40096.3
          39984.2 39869.2 39756.6 39650.8 38265.4 38209.3 38099.5 37940.1 37738.1 37502.3 37243.9 36976.1
          36712.7 36467.6 38276.4 38220.1 38109.5 37949.1 37745.5 37507.8 37247.1 36976.6 36710.6 36463.1
          38299.5 38242.5 38130.8 37968.5 37762.3 37521.1 37256.3 36981.1 36710.3 36458.6 38336 38278.4
          38165.3 38000.9 37791.6 37546.5 37276.8 36996 36719.4 36462.4 38388.1 38329.9 38215.7 38049.5
          37837.7 37589.2 37315.3 37029.6 36747.7 36485.9 38457.4 38399.1 38284.5 38117.6 37904.8 37654.8
          37378.9 37090.7 36806 36541.6 38545.4 38487.4 38373.5 38207.6 37996.1 37747.5 37473 37186.3
          36903 36639.9 38652.5 38595.5 38483.5 38320.7 38113.1 37869.4 37600.7 37320.2 37043.4 36786.6
          38777.9 38722.6 38613.9 38456.1 38255.2 38020 37761.1 37491.8 37226.5 36980.8 38919.6 38866.6
          38762.5 38611.5 38419.8 38196 37950.6 37696.1 37446.4 37215.5 39074.4 39024.1 38925.6 38782.9
          38602.3 38392.1 38162.5 37925.6 37693.9 37480.1 39238 39190.8 39098.4 38965 38796.6 38601.3
          38389 38170.8 37958.1 37762.2 39404.9 39361 39275.2 39151.5 38995.8 38815.9 38621.1 38421.6
          38227.9 38049.5 39569.4 39528.8 39449.5 39335.5 39192.4 39027.6 38849.7 38668 38492 38330
          39725.3 39687.8 39614.8 39510 39378.7 39227.9 39065.6 38900.1 38740 38592.6 39866.4 39831.8
          39764.5 39668 39547.3 39408.9 39260.2 39108.9 38962.4 38827.3 39987.1 39955 39892.5 39802.9
          39691.2 39563.2 39425.8 39286.1 39150.8 39025.6 40082.3 40052.1 39993.4 39909.4 39804.6 39684.7
          39556 39425.1 39298.2 39180.6 40148.1 40119.3 40063.2 39982.9 39882.9 39768.4 39645.7 39520.7
          39399.5 39286.9 40181.7 40153.6 40098.8 40020.5 39922.8 39811.2 39691.4 39569.4 39451 39340.9
          37792.1 37728.1 37602.5 37420 37188 36916.7 36619.1 36310.6 36008.6 35730.2 37801.9 37737.4
          37610.7 37426.4 37191.9 36917.3 36615.6 36302.5 35995.7 35712.9 37822.7 37757.3 37628.5 37441.1
          37202.2 36921.7 36612.8 36291.3 35975.5 35684.5 37856.6 37790 37658.9 37467.8 37223.6 36936
          36618.1 36286.1 35959.1 35657.5 37906.1 37838.5 37705.4 37511 37261.9 36967.8 36641.6 36299.6
          35961.5 35649.2 37973.8 37905.7 37771.4 37575 37323.2 37025.2 36693.7 36345.2 35999.5 35679.7
          38061.7 37993.7 37859.7 37663.7 37412.2 37114.5 36783.1 36434.2 36087.8 35766.9 38170.6 38103.6
          37971.6 37778.7 37531.4 37239.1 36914.2 36572.7 36234.1 35920.8 38300.2 38235.1 38106.9 37919.8
          37680.6 37398.7 37086.5 36759.8 36437.2 36139.7 38448.5 38386.1 38263.2 38084.5 37856.6 37589.3
          37294.9 36988.6 36688.1 36412.2 38612.2 38553 38436.9 38268.3 38054.3 37804.5 37531.1 37248.8
          36973.6 36722.2 38786.5 38731.1 38622.6 38465.5 38266.9 38036.3 37785.6 37528.4 37279.5 37053.1
          38965.8 38914.4 38814 38669 38486.5 38275.7 38047.7 37815.5 37591.9 37389.4 39143.5 39096.2
          39004 38871.2 38704.6 38513 38306.9 38098 37897.8 37716.7 39312.7 39269.5 39185 39063.8
          38912.3 38738.6 38552.6 38364.6 38185 38022.5 39466.6 39427 39349.7 39239 39100.9 38943.1
          38774.5 38604.6 38442.4 38295.4 39598.7 39562.1 39490.9 39389.1 39262.4 39117.9 38963.8 38808.5
          38660.2 38525.6 39703.1 39669 39602.6 39507.8 39389.9 39255.7 39112.6 38968.5 38830.7 38705.2
          39775.4 39743 39679.9 39589.9 39478.1 39350.8 39215.2 39078.5 38947.7 38828.2 39812.4 39780.8
          39719.5 39631.9 39523.1 39399.3 39267.4 39134.6 39007.2 38890.7 37169.6 37094.4 36946.5 36731
          36456 36133.4 35778.4 35410.4 35051.2 34723.6 37177.6 37101.5 36951.8 36733.4 36454.3 36126
          35764.1 35387.8 35019.8 34684.1 37195 37117.4 36964.5 36740.9 36454.4 36116 35741.2 35349.7
          34965.2 34613.9 37224.8 37145.3 36988.5 36758.6 36462.9 36112.1 35721.1 35310 34903.8 34531.3
          37270.4 37189.2 37028.7 36792.9 36488.6 36125.7 35719 35288.2 34859.3 34463.8 37335.3 37253
          37090.1 36850.3 36540.1 36169.1 35751.1 35305.9 34859.6 34445.4 37422.6 37340 37176.6 36936.1
          36624.7 36251.9 35831.4 35382.2 34930.5 34509.4 37533.7 37452.1 37290.6 37053.2 36746.3 36379.6
          35966.8 35527 35085.6 34674.9 37668.7 37589.2 37432.1 37201.7 36904.8 36551.6 36156.4 35738.3
          35321.8 34936.9 37825.7 37749.4 37598.9 37378.9 37096.6 36763 36392.7 36004.9 35622.9 35273.3
          38001.3 37929 37786.9 37579.8 37315.6 37005.6 36664.7 36311.7 35968.3 35657.4 38190.3 38122.8
          37990.3 37797.9 37553.9 37269.6 36960.1 36643.1 36338.3 36065.2 38386.6 38324.2 38202.1 38025.4
          37802.4 37544.6 37266.3 36984.1 36715.6 36477 38582.7 38525.6 38414 38253.2 38051.3 37819.3
          37570.7 37320.7 37084.6 36875.9 38770.7 38718.7 38617.4 38471.9 38289.9 38082 37860.5 37639
          37430.8 37247.2 38942.5 38895.3 38803.4 38671.7 38507.8 38321.1 38123.2 37925.9 37740.9 37577.5
          39090.6 39047.4 38963.6 38843.8 38695 38526.2 38347.5 38169.8 38003.1 37855.4 39208 39168.2
          39090.7 38980.2 38843.2 38688.1 38524.2 38361.2 38208 38071.8 39289.5 39251.9 39178.8 39074.7
          38945.8 38800 38646 38492.7 38348.5 38219.7 39331.3 39294.8 39223.9 39123 38998.2 38857.1
          38708 38559.7 38419.8 38294.8 36395.4 36305.2 36127.3 35867.2 35533.7 35140.3 34705.5 34253.7
          33813.7 33416.4 36400.7 36309.1 36128.4 35863.6 35523.3 35120.6 34673.8 34207.4 33751.5 33339.3
          36413.3 36319.4 36133.5 35860.3 35507.7 35087.9 34618.7 34124.9 33638.6 33196.9 36437.2 36340.2
          36148 35864.5 35496.5 35055 34557 34027 33498.9 33015 36477 36377.1 36178.8 35885.3
          35502.2 35039.3 34512.1 33944.1 33370 32836.6 36537.7 36435.7 36233 35932.1 35538.1 35059.5
          34510.4 33912.7 33300.4 32722.3 36623.4 36520.6 36316.2 36012.7 35614.9 35131 34574.2 33965.6
          33337.4 32738 36736.6 36634.6 36431.9 36131.4 35738.3 35261.4 34714.6 34119.1 33506.8 32924.3
          36877.9 36778.3 36580.7 36288.6 35908.3 35449.9 34928.9 34367.8 33798.5 33264.7 37045.7 36949.9
          36760.4 36481.4 36120.4 35689.1 35204.8 34691.4 34180.4 33710.8 37236.3 37145.6 36966.6 36704.2
          36367.1 35968.4 35526.6 35066.4 34618 34214.7 37444.3 37359.6 37192.9 36949.7 36639.4 36276.1
          35878.8 35472 35083.5 34741.1 37662.6 37584.6 37431.3 37208.9 36927 36600 36246.8 35890.5
          35556 35266.1 37882.9 37811.8 37672.5 37471.4 37218.1 36926.8 36615.5 36305.2 36017.5 35771
          38095.7 38031.5 37906 37725.6 37499.8 37241.9 36968.7 36698.7 36450.4 36238.6 38291.5 38233.7
          38121 37959.6 37758.6 37530.5 37290.2 37054.1 36837.7 36653 38461 38408.8 38307.1 38162
          37982 37778.7 37565.4 37356.4 37164.6 37000.4 38596 38548.1 38455.3 38322.9 38159.4 37975.1
          37782.2 37593.2 37419.5 37269.9 38689.8 38645.1 38558.2 38434.6 38282.2 38110.9 37931.6 37755.9
          37593.9 37453.7 38738 38694.7 38610.9 38491.9 38345.1 38180.2 38007.7 37838.6 37682.4 37546.8
          35467.3 35357.8 35141.1 34822.8 34412.1 33924.1 33381.3 32814.6 32262.9 31769.4 35469 35357.4
          35136.3 34810.6 34389 33885.6 33322.2 32730.2 32150.3 31629.8 35475.1 35359.7 35130.7 34791.7
          34349.9 33817.9 33216 32575.3 31939.6 31363.7 35490.7 35370.7 35131.6 34776 34308.8 33740
          33087.1 32379.8 31664.1 31003.8 35522.4 35397.8 35148.8 34776.7 34284.2 33678 32972 32191.9
          31382.8 30614.9 35576.8 35448.6 35192 34807.3 34295.7 33661.2 32913.7 32074 31181.6 30305.8
          35659.5 35529.6 35269.5 34879.1 34359.3 33713.4 32949.6 32085.3 31153.9 30217.7 35774.4 35644.9
          35385.9 34998 34483.1 33845.8 33096.1 32252.9 31350.1 30449 35922.6 35795.7 35542.6 35164.8
          34666.4 34055.2 33345.3 32560.7 31739.7 30943.6 36102.9 35980.6 35737.3 35376 34903 34329.8
          33675.4 32969.3 32253.6 31585.4 36311.7 36195.6 35965.3 35625.2 35183.8 34655.6 34063.6 33441.1
          32831.4 32284.6 36543 36434.5 36219.9 35904.7 35499.1 35019.7 34491.6 33949.8 33436 32992.4
          36789.1 36689.2 36492.2 36204.6 35837.5 35408.7 34943.9 34477 34046.1 33685.4 37040.1 36949.4
          36771.3 36512.6 36185.2 35807 35402.8 35003.7 34642.5 34346.2 37284.8 37203.5 37044.3 36814.3
          36525.7 36195.5 35846.8 35506.8 35202.6 34955.2 37511.6 37439.1 37297.6 37094.4 36841.1 36553.9
          36253.2 35962.3 35703.1 35492.4 37709 37644.2 37518.2 37338 37114.7 36863.3 36601.6 36349.3
          36124.4 35940.3 37866.8 37808.2 37694.4 37532.3 37332.4 37108.3 36875.8 36651.9 36451.6 36286
          37976.8 37922.4 37817.1 37667.5 37483.4 37277.6 37064.5 36859.1 36674.5 36520.7 38033.2 37981
          37880 37736.7 37560.6 37364 37160.5 36964.2 36787.4 36639.2 34384.6 34250.9 33985.5 33593.2
          33083.3 32472.1 31786.1 31065 30361.8 29738.1 34381.5 34244.7 33972.6 33569.1 33041.8 32405.4
          31685.1 30920.4 30167.9 29496.4 34379 34236.5 33952.3 33528 32968.7 32285.2 31498.9 30648.5
          29794.7 29020.9 34383.7 34234.2 33934.5 33484.1 32883.7 32138.2 31262.6 30290.1 29283.3 28341.3
          34404.3 34247.7 33932.6 33455.8 32813.7 32004.2 31032.6 29920.6 28722.4 27542.9 34449.7 34287.4
          33960.1 33462.8 32788.3 31929.2 30881.1 29650.3 28268.8 26819.5 34527.6 34362.1 34028.3 33520.6
          32831.3 31951.3 30872.5 29592 28119.6 26496 34643.2 34477.5 34143.6 33637.3 32952.8 32084.3
          31028.5 29787.9 28377.8 26846.4 34798.6 34635.5 34307.9 33813.4 33150.1 32318.9 31326.9 30191.8
          28949.6 27671.8 34993 34835.1 34518.9 34044.4 33413.9 32635.6 31727.9 30724.7 29680.9 28677.7
          35222.8 35072.4 34771.9 34323.7 33733.8 33016.4 32198.9 31327.3 30467.5 29698 35482.1 35341
          35060.2 34643.6 34100.5 33449.1 32722.4 31972.5 31268.6 30680.5 35762 35632 35374.2 34994.1
          34503.1 33922.4 33287.1 32649.7 32075.2 31621.4 36051.1 35933.5 35701.1 35360.9 34925.9 34418.4
          33873.5 33339.5 32871.6 32514.1 36336.1 36231.2 36025.1 35725.5 35346.5 34910.4 34449.6 34006
          33623.4 33334.3 36602.2 36509.7 36328.6 36067.3 35740.1 35368.1 34980.2 34610.9 34294 34053.5
          36835.1 36753.5 36594.4 36366.3 36083.2 35764.4 35435.1 35123.1 34854.9 34648.4 37021.9 36949.1
          36807.4 36605.5 36356.5 36078.1 35791.9 35521.3 35287.1 35103.7 37152.5 37085.7 36956.1 36772
          36546 36294.4 36036.5 35792.4 35579.6 35410.6 37219.6 37155.8 37032.4 36857.3 36642.9 36404.6
          36160.7 35929.4 35727 35564.9 33148.5 32985.5 32660.5 32177 31543 30774.8 29903.2 28978.7
          28074.1 27278.2 33139.4 32971.8 32637.1 32136.6 31475.7 30667.5 29739.3 28741.3 27751.9 26874.5
          33125.8 32950.1 32597.2 32065.5 31354.6 30469.9 29430.8 28282.9 27112.6 26050.9 33116.6 32930.4
          32554.6 31982.7 31206.5 30219.2 29024.3 27652.8 26189.6 24797.2 33122.8 32926 32526.9 31914.1
          31070.6 29974.7 28606.4 26964.6 25103.2 23181.9 33156.3 32950.8 32532.7 31887.4 30991.3 29810.6
          28302.2 26422 24148.2 21528 33227.1 33016.2 32587.2 31924.5 31003.6 29788.3 28229.1 26259.9
          23786.9 20644.2 33342.1 33129.8 32698.6 32035.2 31118.8 29921.1 28405.5 26524.9 24211 21359.9
          33504.4 33294.4 32869.1 32218.5 31328.7 30184.4 28773 27088.6 25136.1 22947.7 33714 33509.4
          33096.4 32468.4 31618.6 30544.9 29258.3 27794.1 26221.2 24647.4 33967.8 33771.5 33376.4 32778.9
          31977.8 30981.4 29818.6 28554.5 27299.1 26187.8 34259.5 34074.5 33703 33144.2 32401.3 31489.8
          30449.5 29361.8 28356.2 27572.3 34579.9 34408.9 34067 33555.8 32882.9 32069 31160.4 30242.2
          29440.9 28877.7 34915.5 34761.1 34453.6 33997.6 33404.7 32700 31932 31180.3 30549.9 30127.6
          35250.1 35113.4 34842.7 34445.1 33935.3 33340.8 32707.9 32104 31608 31277.1 35565.2 35445.8
          35210.9 34869.3 34437.5 33942.7 33426.1 32941.5 32545.4 32275.5 35842.6 35738.7 35535.4 35242.5
          34876.9 34464 34038.9 33643.5 33318.5 33089.9 36065.9 35974.5 35796.3 35541.6 35226.8 34874.9
          34515.9 34182.7 33905.7 33704.4 36222.3 36139.4 35978.6 35749.8 35468.9 35157.1 34840.4 34546.1
          34298.7 34114 36302.7 36224.2 36072.1 35856.4 35592.5 35300.4 35004.2 34728.6 34495.2 34318.5
          31763.3 31565.7 31170.2 30577.7 29793 28831 27725.4 26539.6 25373.9 24357.1 31746.8 31542.9
          31133.4 30516.2 29691.4 28667.3 27470.8 26163.4 24856 23706.3 31719.8 31504.3 31069.1 30406
          29505.2 28360.1 26980 25414.1 23787.5 22319.2 31693.5 31463.1 30994.6 30271.8 29269.9 27957.5
          26307.6 24329.7 22139.5 20037.1 31682.1 31436.4 30933.7 30149.2 29041.1 27546.3 25580.6 23064.3
          20015.3 16732.8 31700.6 31442.1 30911.1 30077 28885.5 27247.6 25023.6 22011.5 17980.8 12820.7
          31761.8 31494.9 30946.7 30085.3 28855.3 27166.5 24874.5 21746.8 17366.5 10665.4 31874.6 31604.4
          31050.5 30184.4 28958.8 27301.2 25103.9 22199.3 18279.2 12601.7 32043.5 31774.3 31224.4 30370
          29175.3 27592.7 25565.3 23028.4 19893.5 15992.7 32269.2 32004.8 31466 30633.8 29482 27984.4
          26128.8 23941.8 21513.3 18986 32549.3 32293.3 31772.7 30971.6 29870.6 28457.1 26748 24832.5
          22921.7 21310.4 32878.2 32634.9 32141 31383.6 30348.6 29031.9 27466.1 25772.6 24231.2 23228.7
          33246.1 33020.2 32563.4 31866.7 30923.2 29739.2 28360.7 26922.3 25705.9 25071 33637.5 33433.6
          33023.2 32403.4 31576.3 30561.3 29417.8 28278.8 27370.8 26917.5 34032.4 33853 33494.5 32959.7
          32259.5 31423.1 30513.6 29644.5 28972.4 28620.3 34407.5 34252.6 33945.6 33493.8 32913.8 32238.7
          31526.9 30865.6 30357 30069.1 34739.5 34606.7 34345.3 33965.7 33487 32941.9 32379.8 31865.4
          31465.3 31220.3 35007.7 34892.5 34667.5 34344 33941.9 33491.3 33033.2 32616.1 32285.5 32069
          35195.7 35092.8 34892.5 34606.8 34255.3 33865.3 33471.8 33113.3 32824 32625 35292.5 35195.8
          35008 34741.3 34414.6 34054 33691.3 33360.2 33090.2 32899.5 30236.5 29999.7 29523.8 28805.6
          27845.2 26653.1 25263.7 23754.5 22261.5 20971.6 30211.6 29966.3 29471.2 28718.7 27700.7 26416.1
          24886.2 23182.2 21459.5 19964.5 30169.2 29908.2 29377.5 28560.3 27431.5 25962.4 24137.3 21996.3
          19719 17698.5 30123.1 29841.7 29264.9 28362.2 27082.3 25348 23061.6 20156.1 16769.4 13560
          30091.2 29788.6 29163.5 28171.1 26728.7 24692.3 21823.7 17785.9 12370.3 6432.68 30092.1 29771.3
          29105.8 28040.4 26469.3 24193.3 20829.8 15641.6 7408.09 -4289.42 30141.9 29808.6 29117.2 28011
          26384.2 24044.9 20642.1 15521.2 7382.02 -7695.39 30251.5 29911.8 29209.1 28091.5 26468.5 24189.6
          21007 16499.1 9824.31 -1568.62 30426.7 30085.6 29382 28270.7 26678.4 24498 21585.1 17753.8
          12727.4 5836.89 30669.4 30330.8 29633.7 28537.1 26978.5 24878.9 22164.1 18822.7 14999 10976.4
          30978.5 30646.9 29964.3 28891.1 27368.1 25324.2 22712.2 19616.9 16489.1 14244.3 31349.3 31030.9
          30375.5 29345.2 27882.2 25915.9 23397.5 20431.8 17652.6 16661.4 31772 31474.6 30864 29908.2
          28560.1 26767.1 24508.1 21922.8 19669.6 19321.3 32229.1 31960.5 31412.1 30563 29387.2 27869.7
          26050.1 24127.7 22633.5 22340.6 32695.9 32460.9 31985.5 31261.3 30284 29071.1 27697.3 26350.8
          25370.2 25083.1 33143 32942.5 32540.9 31940.3 31151.9 30210.4 29194.9 28249.8 27572.1 27304.7
          33540.7 33371.3 33035.5 32542 31910.4 31180.1 30420.2 29732.5 29231.7 28987.9 33862.7 33718.2
          33434.3 33023.3 32507.8 31925.8 31333.8 30803.8 30406.8 30183.3 34088.7 33961.3 33712.7 33356.5
          32916.1 32426.4 31934.4 31494.3 31155.4 30946.1 34205 34086.2 33855.3 33526.4 33122.5 32676.7
          32231.2 31831.9 31519.3 31317 28579.9 28300.1 27735.8 26879.2 25723.5 24272.4 22557.9 20669.8
          18786.6 17172.2 28545.8 28255 27665.9 26763.9 25530.2 23949.6 22030.6 19847.8 17609.2 15694.6
          28486.6 28175.5 27539.8 26551.4 25165.1 23319.6 20952.6 18063.9 14886.2 12132.1 28419.1 28081.4
          27384.6 26280.3 24680.7 22436.9 19315.1 15031.1 9604.32 4543.39 28365.1 27999.3 27237.7 26009.3
          24172.9 21448.6 17263.8 10466.9 -604.921 -13403.1 28347.3 27956.9 27139.9 25808.7 23781.1 20660.1
          15466.8 5361.1 -18843.9 -63266.6 28385.2 27977 27122.9 25733 23628.4 20447.8 15414.9 6766.44
          -9348.35 -39950.3 28491.9 28073 27198.6 25785.9 23681.7 20611 16075.3 9151.49 -1967.14 -22645.8
          28674.7 28250 27365.8 25946 23859.9 20901.2 16763.6 11028.5 3140.71 -8131.5 28936.5 28510.1
          27622.1 26197.5 24111 21178.7 17173.1 11936.9 5735.7 -383.368 29278 28854.8 27971.8 26548.5
          24447.4 21456 17295 11802.5 5831.89 3192.47 29696.1 29284.9 28424.9 27031.5 24953.1 21931.3
          17548 11300.3 3934.21 5101.99 30181.3 29794.4 28985.8 27678.3 25733.7 22920.5 18869.6 13154.9
          6608.55 9209.54 30714.2 30364.1 29637.1 28476 26787.9 24446.3 21337.3 17594.3 14423.1 15210.6
          31264.6 30960.1 30334.5 29355.7 27981.4 26180.9 24000.4 21721.4 20102.3 20181.1 31795.8 31538.8
          31017.9 30222.3 29146.7 27813.9 26319.6 24898.5 23948.1 23807.7 32270.1 32056.3 31628.7 30990.7
          30157.6 29172.1 28127.1 27183.5 26546.1 26344.9 32654.6 32475.2 32120.7 31602.2 30943.7 30191.2
          29420.9 28740.3 28262.2 28049 32924.5 32768.6 32463.2 32023 31474.7 30861.8 30246.6 29705.3
          29309.4 29097.7 33063.3 32919.3 32638.4 32236.6 31741.1 31193 30647.4 30166.7 29806.5 29597.3
          26808.3 26483.1 25825.7 24823.5 23462.6 21738.7 19679.2 17382.7 15068.2 13084.7 26764.8 26426.2
          25738.2 24679.6 23220.7 21330.8 19001.5 16302.5 13486.4 11084.7 26688.5 26324.8 25579.3 24412.8
          22759.9 20523.9 17584.7 13867.8 9601.88 5884.19 26599.5 26202.8 25380.9 24067.8 22138.7 19364.6
          15331.6 9354.17 813.803 -7872.64 26523.7 26091.8 25187.8 23714.9 21470 18010.6 12251.8 1118.72
          -24582.6 -67258.8 26488.6 26025 25049 23439.9 20930.6 16861.3 9111 -13260 -157800 -664735
          26517.1 26029.3 25002.2 23310.7 20692.8 16568.3 9459.75 -5146.62 -42231.5 -132661 26624.5 26120.1
          25060 23325.9 20689.6 16714.3 10521.4 249.347 -17979.4 -52536.4 26819.3 26303 25219.1 23452.9
          20797.9 16903.6 11196.6 2811.83 -9298.01 -26185.8 27105.6 26580.9 25476.8 23670.9 20943.8 16929.9
          11066.9 2706.07 -7924.02 -16812 27485.5 26958.1 25842.1 23996.7 21152.7 16808.1 10020.6 -759.649
          -15651 -16400.9 27957.8 27439.2 26335.7 24489.1 21575.7 16899.2 8742.59 -7883.89 -47047.8 -21327.3
          28513.9 28021.7 26973.4 25215.8 22435.3 17958.3 10114 -6147.29 -46571.5 -13117.5 29132.3 28685.8
          27740.6 26176 23764.2 20094.4 14464.5 5997.31 -3781.43 2903.8 29777.1 29390.5 28582.4 27278
          25355.6 22654.5 19059.6 14853.2 11679 13148.1 30402.8 30080.1 29416.6 28378.1 26922.5 25029.9
          22785.8 20550.8 19133.5 19391.8 30962.8 30698.3 30163.6 29351.8 28265 26940.3 25493.9 24175.6
          23354.4 23280.7 31416.9 31198.6 30763.8 30120.5 29290.7 28326.2 27327.1 26450.9 25878 25705.3
          31735.3 31548.2 31179.9 30645 29972.7 29214.9 28452.3 27790.4 27332.3 27130.5 31899 31727.6
          31392.1 30909.7 30311.4 29646.9 28986.4 28413 28002.2 27792.9 24939.3 24567.5 23815 22665.4
          21099.7 19107.3 16711.7 14017.6 11273.4 8893.83 24886.5 24499 23710.7 22495.6 20816.2 18631.7
          15923.2 12759.2 9419.77 6524.03 24793.7 24376.7 23521 22180.2 20275.8 17691.4 14280.3 9943.37
          4910.11 353.933 24684.6 24228.7 23283.1 21770.5 19545.2 16342.8 11696.4 4863.44 -4858.71 -15899.9
          24590.2 24092.1 23048.7 21346.8 18752.7 14771.1 8265.55 -3625.76 -28366.5 -83719.7 24542.6 24005.7
          22874.1 21005.6 18091.7 13408.7 4909.34 -15249.1 -91450 -672760 24568.7 24000.8 22802.2 20820.7
          17738 12848.1 4306.43 -14380.7 -81359.9 -621803 24685.8 24094.5 22846.9 20792.2 17635.8 12800.5
          5066.19 -8498.01 -36271 -109105 24903.2 24292.7 23003.6 20880.4 17634.5 12750.7 5314.13 -6244.28
          -24241.4 -50280 25225.2 24598.7 23268.9 21059.3 17635.6 12384.8 4189.87 -8792.82 -27896.5 -41797.5
          25654.7 25018.2 23655.4 21351.5 17664.8 11651.1 1026.48 -20528.8 -70550.9 -57146.8 26191.7 25559.3
          24193 21839.9 17931.5 11013.8 -4040.34 -58064.3 -500684 -111034 26828.1 26223 24910.5 22632.9
          18805.9 11932.1 -3285.67 -60984.5 -632731 -76158.4 27540.6 26989.7 25800.2 23755.9 20393.9 14692.4
          4202.4 -17334.2 -61889.6 -19485 28287.8 27812.4 26800.6 25111.3 22480.2 18456.5 12409.1 4100.89
          -3286.62 3112.46 29014.9 28621.9 27802.2 26484.6 24560.2 21908.8 18527 14911.8 12705.6 14005.6
          29665.8 29348.1 28699 27694.6 26312.3 24565.7 22583.4 20738.5 19689.1 19896 30192.8 29934.4
          29416.2 28639.6 27620.8 26412.3 25138.7 24024.3 23350.8 23262.4 30561.7 30343.1 29910.8 29277.9
          28474.5 27559.6 26633.7 25838.3 25318.1 25141 30751.1 30552.3 30162 29597.7 28893.4 28107
          27324.7 26653.6 26192.9 25990.5 22992.3 22572.9 21724.2 20428.1 18663.1 16416.1 13709.4 10650.3
          7500.65 4710.33 22930.4 22493.1 21604.1 20235.1 18346 15893 12855.5 9302.71 5522.61 2159.12
          22821.9 22351 21385.9 19877.2 17743.4 14865.7 11099.1 6352.67 863.182 -4229.64 22695.3 22179.8
          21112.8 19413.3 16932.2 13409.1 8406.97 1288.22 -8406.36 -18945.4 22587.5 22023.4 20844.9 18933.4
          16053 11731.6 4977.79 -6353.26 -26424.1 -57945.4 22536.4 21927.1 20645.9 18542.2 15303.7 10252.8
          1728.31 -15073.6 -55962.1 -170223 22573.1 21926.8 20563.8 18317.1 14847.8 9446.14 453.131 -16661.6
          -56264.5 -165454 22716.9 22041.1 20614.1 18260.6 14642.2 9106.74 322.104 -14674.3 -43085.3 -103470
          22976.2 22275.5 20790.8 18331.3 14537.7 8753.26 -235.876 -14632.2 -38141.9 -74032.5 23354.2 22631.2
          21088.4 18499.3 14424.8 8027.2 -2338.02 -19882.8 -49526.1 -81878.7 23852.3 23113.6 21519.7 18787.5
          14323.3 6826.73 -6972.98 -37103 -120098 -167892 24470 23731.3 22118.6 19287.8 14453.3 5599.45
          -14326 -88352.2 -686265 -693940 25198.4 24487.1 22922.1 20131.9 15237.4 5962.87 -14706.6 -72104.6
          -226082 -128509 26012.2 25362.3 23933.9 21387.3 16898.7 8228.58 -12052.1 -75565.6 -273335 -53155.2
          26865.2 26306.1 25095.9 23006.5 19551.4 13700.9 3361.06 -14485.2 -31962.5 -9687.67 27694.3 27236.1
          26267.3 24669.8 22235.4 18653.6 13645.8 7732.18 4508.7 8105.65 28434.7 28068.5 27313 26123.2
          24440.7 22231.6 19607 17086.9 15829.6 16522.8 29032.5 28738.2 28144 27243.6 26043.1 24589.8
          23027.3 21657 20898.8 20936.5 29449.8 29203.3 28713.6 27992 27067.5 26004.1 24920.3 23995.6
          23421.8 23279.8 29663.6 29440.7 29001.8 28364.3 27564.2 26665.9 25770.6 25009 24504.5 24312.7
          20988.7 20519.9 19572.3 18127.9 16166.4 13676.8 10683.1 7291.38 3759.21 539.964 20917.3 20428.1
          19435.2 17910.8 15817.2 13115 9788.22 5903.06 1726.66 -2125.04 20793.2 20265.6 19187.1 17509.4
          15156 12018.8 7966.24 2901.9 -3021.58 -8856.72 20651.1 20072.7 18879.6 16992.4 14271 10478.1
          5212.31 -2181.39 -12563.5 -25719.5 20536.1 19902.6 18584.1 16463.6 13317.9 8714.74 1730.64 -9935.62
          -33287.5 -93288 20494.4 19810.1 18376.4 16041.8 12505.5 7136.35 -1662.95 -19696.6 -85812.9 -684624
          20562.1 19837 18311.9 15812.7 11999.4 6186.9 -3183.67 -20428.6 -61017.8 -196393 20759.1 20002.6
          18406.2 15779 11757.1 5649.29 -3958.12 -20366.5 -53440.2 -152800 21090.8 20308.2 18648.5 15894.6
          11635.1 5104.26 -5188.81 -22375 -53638.6 -114653 21555.8 20750.4 19027.5 16124 11524 4220.83
          -7879.31 -29758.2 -75878.3 -189334 22150.8 21329.4 19550.8 16483.8 11435 2919.04 -12583.9 -45488.9
          -146562 -702970 22871.5 22050.4 20248.2 17054.6 11535.5 1425.74 -19495.6 -70793.4 -226008 -707034
          23706.1 22914.4 21157 17963.3 12147.5 312.76 -29270.3 -120868 -278274 -161291 24626.8 23902.9
          22291.5 19329.5 13700.5 380.736 -54206.3 -601073 -687644 -93594.3 25583.7 24963 23603.9 21196.2
          16990.9 8990.47 -9055 -59304.2 -72124.6 -21659.6 26507.6 26002.1 24924 23114.4 20262.8 15803.9
          8879.61 -669.999 -3548.78 3224.26 27328 26927 26094.8 24769.4 22858.8 20273.4 17067.1 13868.5
          12606.1 13827.2 27987.5 27667.4 27018.8 26029.5 24696.4 23059.4 21271.1 19696.2 18899.9 19051.9
          28446.2 28179.6 27648.9 26863.6 25852 24680.6 23480.7 22460.4 21851 21735.4 28680.8 28440.6
          27966.6 27276.5 26407.3 25428.2 24450.7 23622.9 23086 22899.7 18954.2 18432.1 17378.3 15776.7
          13611.5 10879.1 7610.81 3912.23 24.2576 -3631.2 18871.7 18325.5 17219 15527 13218.6 10268
          6675.4 2514.59 -1968.83 -6233.51 18729.8 18138.2 16931.9 15066 12475.7 9080.57 4793.38 -434.67
          -6436.71 -12427.3 18572.1 17920.6 16580.6 14476.1 11485.7 7425.95 2010.89 -5189.72 -14563.9 -25327.7
          18455.7 17740.2 16255.6 13886.6 10434.7 5559.29 -1391.3 -11808.5 -28479.7 -54462.4 18438.8 17667.6
          16055.8 13450.5 9575.43 3919.29 -4623.47 -19031.2 -48782.9 -127897 18564.6 17753.5 16050.8 13277.3
          9104.6 2925.15 -6514.48 -22194.7 -51823.6 -115152 18851.3 18014.6 16251.4 13359.9 8966.81 2383.23
          -7766.88 -24580.9 -55980.8 -125144 19296.8 18442.3 16631.5 13631.2 8998.65 1893.61 -9422.27 -29182.2
          -70335.9 -180818 19889.4 19021.4 17165.7 14039.7 9082.61 1159.56 -12348 -39770.6 -128718 -703897
          20617.1 19742.5 17850.2 14590.3 9225.54 154.757 -16524.6 -52900.7 -168328 -718110 21468.1 20602.7
          18705.4 15348.9 9557.03 -1052.02 -23088 -77506.4 -236673 -259072 22424.9 21597 19761.2 16429.6
          10359.9 -2104.5 -34636 -153052 -711794 -160018 23455.9 22703.1 21029 17955.2 12109.2 -1835.96
          -60232.5 -660465 -596700 -88273 24508.5 23865.5 22458.8 19970.1 15627.6 7359.35 -11361.6 -63604.6
          -66731.2 -21904.2 25512.1 24989.7 23876.3 22010.2 19074.8 14495.3 7410.3 -2228.01 -4266 2084.66
          26395.6 25981.5 25123 23757.2 21792 19139.9 15866.6 12640.4 11462.7 12635.1 27101.4 26771
          26102 25082.2 23709.8 22027.9 20196.3 18592.5 17791.3 17928.5 27590.6 27315.4 26767.6 25957.4
          24914.4 23707.9 22473.6 21425.6 20798.8 20672.6 27840.3 27592.2 27102.8 26390.2 25493 24482.7
          23474.4 22620.2 22064.7 21868.3 16923.2 16341.3 15168.3 13390.4 10998.7 8002.71 4447.67 440.662