<?xml version="1.0"?>
<VTKFile type="PolyData" version="0.1" byte_order="LittleEndian">
  <PolyData>
    <Piece NumberOfLines="100" NumberOfPoints="101">
      <PointData Scalars="Sn">
        <DataArray type="Float32" Name="Sn" NumberOfComponents="1" format="ascii">
          0.568606 0.567348 0.56618 0.565094 0.564083 0.563143 0.562266 0.561449 0.560685 0.559972 0.559305 0.558681
          0.558097 0.55755 0.557036 0.556554 0.556102 0.555677 0.555278 0.554902 0.554548 0.554215 0.553902 0.553607
          0.553328 0.553065 0.552818 0.552584 0.552362 0.552154 0.551956 0.551769 0.551592 0.551423 0.551264 0.551112
          0.550968 0.55083 0.550698 0.550571 0.550449 0.550331 0.550216 0.550104 0.549994 0.549884 0.549775 0.549665
          0.549553 0.549438 0.549318 0.549193 0.54906 0.548918 0.548765 0.548599 0.548418 0.548218 0.547998 0.547754
          0.547484 0.547184 0.546852 0.546484 0.546078 0.545632 0.545146 0.544619 0.544053 0.543454 0.542827 0.542186
          0.541546 0.540932 0.540386 0.540006 0.54 0.54 0.54 0.54 0.54 0.54 0.54 0.54
          0.54 0.54 0.54 0.54 0.54 0.54 0.54 0.54 0.54 0.54 0.54 0.54
          0.54 0.54 0.54 0.54 0.54
        </DataArray>
        <DataArray type="Float32" Name="Sw" NumberOfComponents="1" format="ascii">
          0.431394 0.432652 0.43382 0.434906 0.435917 0.436857 0.437734 0.438551 0.439315 0.440028 0.440695 0.441319
          0.441903 0.44245 0.442964 0.443446 0.443898 0.444323 0.444722 0.445098 0.445452 0.445785 0.446098 0.446393
          0.446672 0.446935 0.447182 0.447416 0.447638 0.447847 0.448044 0.448231 0.448408 0.448576 0.448736 0.448888
          0.449032 0.44917 0.449302 0.449429 0.449551 0.449669 0.449784 0.449896 0.450006 0.450116 0.450225 0.450335
          0.450447 0.450562 0.450682 0.450807 0.45094 0.451082 0.451235 0.451401 0.451582 0.451782 0.452002 0.452246
          0.452516 0.452816 0.453148 0.453516 0.453922 0.454368 0.454854 0.455381 0.455947 0.456546 0.457173 0.457814
          0.458455 0.459068 0.459614 0.459994 0.46 0.46 0.46 0.46 0.46 0.46 0.46 0.46
          0.46 0.46 0.46 0.46 0.46 0.46 0.46 0.46 0.46 0.46 0.46 0.46
          0.46 0.46 0.46 0.46 0.46
        </DataArray>
        <DataArray type="Float32" Name="pn" NumberOfComponents="1" format="ascii">
          100000 100000 100000 100000 100000 100000 100000 100000 100000 100000 100000 100000
          100000 100000 100000 100000 100000 100000 100000 100000 100000 100000 100000 100000
          100000 100000 100000 100000 100000 100000 100000 100000 100000 100000 100000 100000
          100000 100000 100000 100000 100000 100000 100000 100000 100000 100000 100000 100000
          100000 100000 100000 100000 100000 100000 100000 100000 100000 100000 100000 100000
          100000 100000 100000 100000 100000 100000 100000 100000 100000 100000 100000 100000
          100000 100000 100000 100000 100090 100187 100284 100382 100480 100578 100676 100774
          100872 100970 101068 101167 101265 101363 101461 101559 101657 101755 101853 101951
          102049 102148 102246 102344 102442
        </DataArray>
        <DataArray type="Float32" Name="pw" NumberOfComponents="1" format="ascii">
          97494 97588.5 97676.2 97757.7 97833.6 97904.3 97970.3 98032 98089.7 98143.7 98194.4 98241.9
          98286.5 98328.4 98367.9 98405 98439.9 98472.8 98503.9 98533.2 98560.8 98586.9 98611.6 98634.9
          98656.9 98677.7 98697.4 98716.1 98733.8 98750.6 98766.4 98781.5 98795.8 98809.4 98822.4 98834.7
          98846.5 98857.8 98868.6 98879 98889 98898.7 98908.2 98917.5 98926.6 98935.6 98944.7 98953.9
          98963.2 98972.9 98982.9 98993.4 99004.6 99016.6 99029.5 99043.7 99059.1 99076.2 99095.2 99116.3
          99139.9 99166.2 99195.6 99228.6 99265.4 99306.3 99351.9 99402.3 99457.9 99518.9 99585.3 99657.3
          99734.6 99817 99904.1 99995.3 100090 100187 100284 100382 100480 100578 100676 100774
          100872 100970 101068 101167 101265 101363 101461 101559 101657 101755 101853 101951
          102049 102148 102246 102344 102442
        </DataArray>
        <DataArray type="Float32" Name="pc" NumberOfComponents="1" format="ascii">
          2506 2411.53 2323.85 2242.33 2166.45 2095.71 2029.7 1968.01 1910.31 1856.28 1805.63 1758.12
          1713.51 1671.58 1632.15 1595.04 1560.1 1527.17 1496.13 1466.84 1439.2 1413.1 1388.44 1365.14
          1343.11 1322.27 1302.55 1283.88 1266.2 1249.45 1233.56 1218.48 1204.17 1190.56 1177.61 1165.27
          1153.49 1142.22 1131.41 1121.02 1111 1101.28 1091.82 1082.55 1073.42 1064.35 1055.27 1046.1
          1036.75 1027.12 1017.1 1006.57 995.391 983.41 970.456 956.339 940.849 923.753 904.792 883.688
          860.134 833.804 804.354 771.424 734.645 693.654 648.1 597.662 542.068 481.109 414.67 342.74
          265.439 183.032 95.9361 4.71507 0 0 0 0 0 0 0 0
          0 0 0 0 0 0 0 0 0 0 0 0
          0 0 0 0 0
        </DataArray>
        <DataArray type="Float32" Name="rhoW" NumberOfComponents="1" format="ascii">
          1000 1000 1000 1000 1000 1000 1000 1000 1000 1000 1000 1000
          1000 1000 1000 1000 1000 1000 1000 1000 1000 1000 1000 1000
          1000 1000 1000 1000 1000 1000 1000 1000 1000 1000 1000 1000
          1000 1000 1000 1000 1000 1000 1000 1000 1000 1000 1000 1000
          1000 1000 1000 1000 1000 1000 1000 1000 1000 1000 1000 1000
          1000 1000 1000 1000 1000 1000 1000 1000 1000 1000 1000 1000
          1000 1000 1000 1000 1000 1000 1000 1000 1000 1000 1000 1000
          1000 1000 1000 1000 1000 1000 1000 1000 1000 1000 1000 1000
          1000 1000 1000 1000 1000
        </DataArray>
        <DataArray type="Float32" Name="rhoN" NumberOfComponents="1" format="ascii">
          1e-10 1e-10 1e-10 1e-10 1e-10 1e-10 1e-10 1e-10 1e-10 1e-10 1e-10 1e-10
          1e-10 1e-10 1e-10 1e-10 1e-10 1e-10 1e-10 1e-10 1e-10 1e-10 1e-10 1e-10
          1e-10 1e-10 1e-10 1e-10 1e-10 1e-10 1e-10 1e-10 1e-10 1e-10 1e-10 1e-10
          1e-10 1e-10 1e-10 1e-10 1e-10 1e-10 1e-10 1e-10 1e-10 1e-10 1e-10 1e-10
          1e-10 1e-10 1e-10 1e-10 1e-10 1e-10 1e-10 1e-10 1e-10 1e-10 1e-10 1e-10
          1e-10 1e-10 1e-10 1e-10 1e-10 1e-10 1e-10 1e-10 1e-10 1e-10 1e-10 1e-10
          1e-10 1e-10 1e-10 1e-10 1e-10 1e-10 1e-10 1e-10 1e-10 1e-10 1e-10 1e-10
          1e-10 1e-10 1e-10 1e-10 1e-10 1e-10 1e-10 1e-10 1e-10 1e-10 1e-10 1e-10
          1e-10 1e-10 1e-10 1e-10 1e-10
        </DataArray>
        <DataArray type="Float32" Name="mobW" NumberOfComponents="1" format="ascii">
          105.213 110.136 114.989 119.767 124.463 129.071 133.587 138.006 142.327 146.546 150.662 154.673
          158.578 162.376 166.068 169.653 173.132 176.504 179.772 182.936 185.997 188.956 191.816 194.578
          197.243 199.815 202.294 204.684 206.986 209.204 211.341 213.399 215.381 217.291 219.133 220.911
          222.629 224.291 225.902 227.469 228.997 230.492 231.963 233.418 234.866 236.318 237.785 239.281
          240.822 242.426 244.112 245.904 247.83 249.921 252.213 254.749 257.579 260.762 264.367 268.477
          273.187 278.617 284.905 292.224 300.784 310.847 322.743 336.9 353.883 374.47 399.785 431.559
          472.74 529.201 616.638 864.084 1000 1000 1000 1000 1000 1000 1000 1000
          1000 1000 1000 1000 1000 1000 1000 1000 1000 1000 1000 1000
          1000 1000 1000 1000 1000
        </DataArray>
        <DataArray type="Float32" Name="mobN" NumberOfComponents="1" format="ascii">
          1e+10 1e+10 1e+10 1e+10 1e+10 1e+10 1e+10 1e+10 1e+10 1e+10 1e+10 1e+10
          1e+10 1e+10 1e+10 1e+10 1e+10 1e+10 1e+10 1e+10 1e+10 1e+10 1e+10 1e+10
          1e+10 1e+10 1e+10 1e+10 1e+10 1e+10 1e+10 1e+10 1e+10 1e+10 1e+10 1e+10
          1e+10 1e+10 1e+10 1e+10 1e+10 1e+10 1e+10 1e+10 1e+10 1e+10 1e+10 1e+10
          1e+10 1e+10 1e+10 1e+10 1e+10 1e+10 1e+10 1e+10 1e+10 1e+10 1e+10 1e+10
          1e+10 1e+10 1e+10 1e+10 1e+10 1e+10 1e+10 1e+10 1e+10 1e+10 1e+10 1e+10
          1e+10 1e+10 1e+10 1e+10 1e+10 1e+10 1e+10 1e+10 1e+10 1e+10 1e+10 1e+10
          1e+10 1e+10 1e+10 1e+10 1e+10 1e+10 1e+10 1e+10 1e+10 1e+10 1e+10 1e+10
          1e+10 1e+10 1e+10 1e+10 1e+10
        </DataArray>
        <DataArray type="Float32" Name="porosity" NumberOfComponents="1" format="ascii">
          1 1 1 1 1 1 1 1 1 1 1 1
          1 1 1 1 1 1 1 1 1 1 1 1
          1 1 1 1 1 1 1 1 1 1 1 1
          1 1 1 1 1 1 1 1 1 1 1 1
          1 1 1 1 1 1 1 1 1 1 1 1
          1 1 1 1 1 1 1 1 1 1 1 1
          1 1 1 1 1 1 1 1 1 1 1 1
          1 1 1 1 1 1 1 1 1 1 1 1
          1 1 1 1 1
        </DataArray>
        <DataArray type="Float32" Name="temperature" NumberOfComponents="1" format="ascii">
          283.15 283.15 283.15 283.15 283.15 283.15 283.15 283.15 283.15 283.15 283.15 283.15
          283.15 283.15 283.15 283.15 283.15 283.15 283.15 283.15 283.15 283.15 283.15 283.15
          283.15 283.15 283.15 283.15 283.15 283.15 283.15 283.15 283.15 283.15 283.15 283.15
          283.15 283.15 283.15 283.15 283.15 283.15 283.15 283.15 283.15 283.15 283.15 283.15
          283.15 283.15 283.15 283.15 283.15 283.15 283.15 283.15 283.15 283.15 283.15 283.15
          283.15 283.15 283.15 283.15 283.15 283.15 283.15 283.15 283.15 283.15 283.15 283.15
          283.15 283.15 283.15 283.15 283.15 283.15 283.15 283.15 283.15 283.15 283.15 283.15
          283.15 283.15 283.15 283.15 283.15 283.15 283.15 283.15 283.15 283.15 283.15 283.15
          283.15 283.15 283.15 283.15 283.15
        </DataArray>
        <DataArray type="Float32" Name="pressure head" NumberOfComponents="1" format="ascii">
          -25.5453 -24.5824 -23.6886 -22.8576 -22.0841 -21.363 -20.6901 -20.0613 -19.4731 -18.9223 -18.4061 -17.9217
          -17.4669 -17.0396 -16.6376 -16.2594 -15.9032 -15.5675 -15.251 -14.9525 -14.6707 -14.4047 -14.1533 -13.9158
          -13.6912 -13.4788 -13.2778 -13.0875 -12.9073 -12.7365 -12.5745 -12.4208 -12.2749 -12.1362 -12.0042 -11.8784
          -11.7583 -11.6434 -11.5333 -11.4274 -11.3251 -11.2261 -11.1296 -11.0352 -10.9421 -10.8496 -10.7571 -10.6636
          -10.5683 -10.4701 -10.368 -10.2607 -10.1467 -10.0246 -9.89251 -9.74862 -9.59072 -9.41644 -9.22316 -9.00803
          -8.76793 -8.49954 -8.19933 -7.86364 -7.48874 -7.07089 -6.60653 -6.09238 -5.52566 -4.90427 -4.22701 -3.49378
          -2.7058 -1.86577 -0.977942 -0.0480639 0.919202 1.90266 2.89461 3.89188 4.89161 5.89161 6.89161 7.89161
          8.89161 9.89161 10.8916 11.8916 12.8916 13.8916 14.8916 15.8916 16.8916 17.8916 18.8916 19.8916
          20.8916 21.8916 22.8916 23.8916 24.8916
        </DataArray>
        <DataArray type="Float32" Name="water content" NumberOfComponents="1" format="ascii">
          0.431394 0.432652 0.43382 0.434906 0.435917 0.436857 0.437734 0.438551 0.439315 0.440028 0.440695 0.441319
          0.441903 0.44245 0.442964 0.443446 0.443898 0.444323 0.444722 0.445098 0.445452 0.445785 0.446098 0.446393
          0.446672 0.446935 0.447182 0.447416 0.447638 0.447847 0.448044 0.448231 0.448408 0.448576 0.448736 0.448888
          0.449032 0.44917 0.449302 0.449429 0.449551 0.449669 0.449784 0.449896 0.450006 0.450116 0.450225 0.450335
          0.450447 0.450562 0.450682 0.450807 0.45094 0.451082 0.451235 0.451401 0.451582 0.451782 0.452002 0.452246
          0.452516 0.452816 0.453148 0.453516 0.453922 0.454368 0.454854 0.455381 0.455947 0.456546 0.457173 0.457814
          0.458455 0.459068 0.459614 0.459994 0.46 0.46 0.46 0.46 0.46 0.46 0.46 0.46
          0.46 0.46 0.46 0.46 0.46 0.46 0.46 0.46 0.46 0.46 0.46 0.46
          0.46 0.46 0.46 0.46 0.46
        </DataArray>
      </PointData>
      <CellData Scalars="process rank">
        <DataArray type="Float32" Name="process rank" NumberOfComponents="1" format="ascii">
          0 0 0 0 0 0 0 0 0 0 0 0
          0 0 0 0 0 0 0 0 0 0 0 0
          0 0 0 0 0 0 0 0 0 0 0 0
          0 0 0 0 0 0 0 0 0 0 0 0
          0 0 0 0 0 0 0 0 0 0 0 0
          0 0 0 0 0 0 0 0 0 0 0 0
          0 0 0 0 0 0 0 0 0 0 0 0
          0 0 0 0 0 0 0 0 0 0 0 0
          0 0 0 0
        </DataArray>
      </CellData>
      <Points>
        <DataArray type="Float32" Name="Coordinates" NumberOfComponents="3" format="ascii">
          0 0 0 -0.01 0 0 -0.02 0 0 -0.03 0 0
          -0.04 0 0 -0.05 0 0 -0.06 0 0 -0.07 0 0
          -0.08 0 0 -0.09 0 0 -0.1 0 0 -0.11 0 0
          -0.12 0 0 -0.13 0 0 -0.14 0 0 -0.15 0 0
          -0.16 0 0 -0.17 0 0 -0.18 0 0 -0.19 0 0
          -0.2 0 0 -0.21 0 0 -0.22 0 0 -0.23 0 0
          -0.24 0 0 -0.25 0 0 -0.26 0 0 -0.27 0 0
          -0.28 0 0 -0.29 0 0 -0.3 0 0 -0.31 0 0
          -0.32 0 0 -0.33 0 0 -0.34 0 0 -0.35 0 0
          -0.36 0 0 -0.37 0 0 -0.38 0 0 -0.39 0 0
          -0.4 0 0 -0.41 0 0 -0.42 0 0 -0.43 0 0
          -0.44 0 0 -0.45 0 0 -0.46 0 0 -0.47 0 0
          -0.48 0 0 -0.49 0 0 -0.5 0 0 -0.51 0 0
          -0.52 0 0 -0.53 0 0 -0.54 0 0 -0.55 0 0
          -0.56 0 0 -0.57 0 0 -0.58 0 0 -0.59 0 0
          -0.6 0 0 -0.61 0 0 -0.62 0 0 -0.63 0 0
          -0.64 0 0 -0.65 0 0 -0.66 0 0 -0.67 0 0
          -0.68 0 0 -0.69 0 0 -0.7 0 0 -0.71 0 0
          -0.72 0 0 -0.73 0 0 -0.74 0 0 -0.75 0 0
          -0.76 0 0 -0.77 0 0 -0.78 0 0 -0.79 0 0
          -0.8 0 0 -0.81 0 0 -0.82 0 0 -0.83 0 0
          -0.84 0 0 -0.85 0 0 -0.86 0 0 -0.87 0 0
          -0.88 0 0 -0.89 0 0 -0.9 0 0 -0.91 0 0
          -0.92 0 0 -0.93 0 0 -0.94 0 0 -0.95 0 0
          -0.96 0 0 -0.97 0 0 -0.98 0 0 -0.99 0 0
          -1 0 0
        </DataArray>
      </Points>
      <Lines>
        <DataArray type="Int32" Name="connectivity" NumberOfComponents="1" format="ascii">
          0 1 1 2 2 3 3 4 4 5 5 6
          6 7 7 8 8 9 9 10 10 11 11 12
          12 13 13 14 14 15 15 16 16 17 17 18
          18 19 19 20 20 21 21 22 22 23 23 24
          24 25 25 26 26 27 27 28 28 29 29 30
          30 31 31 32 32 33 33 34 34 35 35 36
          36 37 37 38 38 39 39 40 40 41 41 42
          42 43 43 44 44 45 45 46 46 47 47 48
          48 49 49 50 50 51 51 52 52 53 53 54
          54 55 55 56 56 57 57 58 58 59 59 60
          60 61 61 62 62 63 63 64 64 65 65 66
          66 67 67 68 68 69 69 70 70 71 71 72
          72 73 73 74 74 75 75 76 76 77 77 78
          78 79 79 80 80 81 81 82 82 83 83 84
          84 85 85 86 86 87 87 88 88 89 89 90
          90 91 91 92 92 93 93 94 94 95 95 96
          96 97 97 98 98 99 99 100
        </DataArray>
        <DataArray type="Int32" Name="offsets" NumberOfComponents="1" format="ascii">
          2 4 6 8 10 12 14 16 18 20 22 24
          26 28 30 32 34 36 38 40 42 44 46 48
          50 52 54 56 58 60 62 64 66 68 70 72
          74 76 78 80 82 84 86 88 90 92 94 96
          98 100 102 104 106 108 110 112 114 116 118 120
          122 124 126 128 130 132 134 136 138 140 142 144
          146 148 150 152 154 156 158 160 162 164 166 168
          170 172 174 176 178 180 182 184 186 188 190 192
          194 196 198 200
        </DataArray>
      </Lines>
    </Piece>
  </PolyData>
</VTKFile>
