<?xml version="1.0"?>
<VTKFile type="PolyData" version="0.1" byte_order="LittleEndian">
  <PolyData>
    <Piece NumberOfLines="100" NumberOfPoints="101">
      <PointData Scalars="Sn">
        <DataArray type="Float32" Name="Sn" NumberOfComponents="1" format="ascii">
          0.592611 0.592615 0.592619 0.592624 0.592629 0.592635 0.592642 0.592649 0.592657 0.592665 0.592674 0.592685
          0.592696 0.592709 0.592722 0.592737 0.592754 0.592771 0.592791 0.592812 0.592836 0.592862 0.59289 0.59292
          0.592954 0.59299 0.59303 0.593074 0.593121 0.593173 0.59323 0.593292 0.59336 0.593434 0.593515 0.593603
          0.593699 0.593804 0.593919 0.594045 0.594182 0.594331 0.594495 0.594674 0.594869 0.595083 0.595316 0.595572
          0.595851 0.596158 0.596493 0.59686 0.597263 0.597704 0.598188 0.59872 0.599304 0.599946 0.600652 0.601429
          0.602284 0.603228 0.604268 0.605417 0.606687 0.608092 0.609647 0.61137 0.61328 0.615401 0.617757 0.620376
          0.623289 0.626529 0.630135 0.634146 0.638604 0.643553 0.649035 0.655088 0.661742 0.66901 0.67688 0.685303
          0.694177 0.703334 0.712531 0.721451 0.729734 0.737033 0.743092 0.74781 0.751263 0.753655 0.755239 0.756255
          0.756894 0.757295 0.757551 0.757727 0.757868
        </DataArray>
        <DataArray type="Float32" Name="Sw" NumberOfComponents="1" format="ascii">
          0.407389 0.407385 0.407381 0.407376 0.407371 0.407365 0.407358 0.407351 0.407343 0.407335 0.407326 0.407315
          0.407304 0.407291 0.407278 0.407263 0.407246 0.407229 0.407209 0.407188 0.407164 0.407138 0.40711 0.40708
          0.407046 0.40701 0.40697 0.406926 0.406879 0.406827 0.40677 0.406708 0.40664 0.406566 0.406485 0.406397
          0.406301 0.406196 0.406081 0.405955 0.405818 0.405669 0.405505 0.405326 0.405131 0.404917 0.404684 0.404428
          0.404149 0.403842 0.403507 0.40314 0.402737 0.402296 0.401812 0.40128 0.400696 0.400054 0.399348 0.398571
          0.397716 0.396772 0.395732 0.394583 0.393313 0.391908 0.390353 0.38863 0.38672 0.384599 0.382243 0.379624
          0.376711 0.373471 0.369865 0.365854 0.361396 0.356447 0.350965 0.344912 0.338258 0.33099 0.32312 0.314697
          0.305823 0.296666 0.287469 0.278549 0.270266 0.262967 0.256908 0.25219 0.248737 0.246345 0.244761 0.243745
          0.243106 0.242705 0.242449 0.242273 0.242132
        </DataArray>
        <DataArray type="Float32" Name="pn" NumberOfComponents="1" format="ascii">
          100000 100000 100000 100000 100000 100000 100000 100000 100000 100000 100000 100000
          100000 100000 100000 100000 100000 100000 100000 100000 100000 100000 100000 100000
          100000 100000 100000 100000 100000 100000 100000 100000 100000 100000 100000 100000
          100000 100000 100000 100000 100000 100000 100000 100000 100000 100000 100000 100000
          100000 100000 100000 100000 100000 100000 100000 100000 100000 100000 100000 100000
          100000 100000 100000 100000 100000 100000 100000 100000 100000 100000 100000 100000
          100000 100000 100000 100000 100000 100000 100000 100000 100000 100000 100000 100000
          100000 100000 100000 100000 100000 100000 100000 100000 100000 100000 100000 100000
          100000 100000 100000 100000 100000
        </DataArray>
        <DataArray type="Float32" Name="pw" NumberOfComponents="1" format="ascii">
          99019 99018.9 99018.7 99018.6 99018.4 99018.2 99018 99017.8 99017.6 99017.3 99017 99016.7
          99016.3 99015.9 99015.5 99015 99014.5 99014 99013.3 99012.7 99011.9 99011.1 99010.2 99009.3
          99008.2 99007.1 99005.8 99004.4 99003 99001.3 98999.5 98997.6 98995.5 98993.1 98990.6 98987.9
          98984.8 98981.6 98978 98974 98969.8 98965.1 98960 98954.4 98948.4 98941.7 98934.5 98926.5
          98917.9 98908.4 98898.1 98886.7 98874.3 98860.8 98845.9 98829.6 98811.7 98792.1 98770.6 98746.9
          98720.9 98692.2 98660.7 98625.9 98587.4 98544.8 98497.7 98445.4 98387.2 98322.5 98250.2 98169.3
          98078.6 97976.6 97861.5 97731.2 97583.2 97414.6 97221.7 97000.4 96745.7 96451.9 96112.9 95722.3
          95274.8 94767.7 94203.8 93595.1 92965.3 92349.9 91789.3 91317.2 90949.9 90683.9 90502.1 90383
          90307.1 90259.2 90228.4 90207.1 90190
        </DataArray>
        <DataArray type="Float32" Name="pc" NumberOfComponents="1" format="ascii">
          981 981.123 981.26 981.41 981.577 981.761 981.963 982.186 982.432 982.701 982.998 983.323
          983.68 984.071 984.5 984.97 985.485 986.048 986.665 987.339 988.077 988.883 989.764 990.727
          991.779 992.928 994.182 995.553 997.049 998.682 1000.47 1002.41 1004.54 1006.85 1009.38 1012.15
          1015.16 1018.45 1022.04 1025.96 1030.23 1034.9 1040 1045.56 1051.64 1058.28 1065.53 1073.45
          1082.11 1091.58 1101.94 1113.27 1125.66 1139.24 1154.11 1170.4 1188.27 1207.88 1229.42 1253.08
          1279.1 1307.75 1339.32 1374.15 1412.62 1455.18 1502.32 1554.63 1612.77 1677.52 1749.8 1830.67
          1921.38 2023.41 2138.53 2268.82 2416.79 2585.43 2778.3 2999.61 3254.32 3548.09 3887.12 4277.69
          4725.2 5232.3 5796.18 6404.93 7034.7 7650.09 8210.68 8682.78 9050.1 9316.14 9497.92 9616.96
          9692.85 9740.8 9771.62 9792.85 9810
        </DataArray>
        <DataArray type="Float32" Name="rhoW" NumberOfComponents="1" format="ascii">
          1000 1000 1000 1000 1000 1000 1000 1000 1000 1000 1000 1000
          1000 1000 1000 1000 1000 1000 1000 1000 1000 1000 1000 1000
          1000 1000 1000 1000 1000 1000 1000 1000 1000 1000 1000 1000
          1000 1000 1000 1000 1000 1000 1000 1000 1000 1000 1000 1000
          1000 1000 1000 1000 1000 1000 1000 1000 1000 1000 1000 1000
          1000 1000 1000 1000 1000 1000 1000 1000 1000 1000 1000 1000
          1000 1000 1000 1000 1000 1000 1000 1000 1000 1000 1000 1000
          1000 1000 1000 1000 1000 1000 1000 1000 1000 1000 1000 1000
          1000 1000 1000 1000 1000
        </DataArray>
        <DataArray type="Float32" Name="rhoN" NumberOfComponents="1" format="ascii">
          1e-10 1e-10 1e-10 1e-10 1e-10 1e-10 1e-10 1e-10 1e-10 1e-10 1e-10 1e-10
          1e-10 1e-10 1e-10 1e-10 1e-10 1e-10 1e-10 1e-10 1e-10 1e-10 1e-10 1e-10
          1e-10 1e-10 1e-10 1e-10 1e-10 1e-10 1e-10 1e-10 1e-10 1e-10 1e-10 1e-10
          1e-10 1e-10 1e-10 1e-10 1e-10 1e-10 1e-10 1e-10 1e-10 1e-10 1e-10 1e-10
          1e-10 1e-10 1e-10 1e-10 1e-10 1e-10 1e-10 1e-10 1e-10 1e-10 1e-10 1e-10
          1e-10 1e-10 1e-10 1e-10 1e-10 1e-10 1e-10 1e-10 1e-10 1e-10 1e-10 1e-10
          1e-10 1e-10 1e-10 1e-10 1e-10 1e-10 1e-10 1e-10 1e-10 1e-10 1e-10 1e-10
          1e-10 1e-10 1e-10 1e-10 1e-10 1e-10 1e-10 1e-10 1e-10 1e-10 1e-10 1e-10
          1e-10 1e-10 1e-10 1e-10 1e-10
        </DataArray>
        <DataArray type="Float32" Name="mobW" NumberOfComponents="1" format="ascii">
          215.441 215.412 215.379 215.343 215.303 215.259 215.211 215.158 215.099 215.035 214.964 214.887
          214.801 214.708 214.606 214.494 214.372 214.238 214.092 213.932 213.757 213.566 213.358 213.131
          212.883 212.612 212.317 211.995 211.645 211.263 210.848 210.395 209.902 209.366 208.783 208.149
          207.46 206.71 205.896 205.013 204.053 203.012 201.883 200.659 199.332 197.896 196.341 194.659
          192.841 190.877 188.757 186.471 184.007 181.355 178.504 175.441 172.156 168.636 164.872 160.854
          156.57 152.014 147.178 142.057 136.651 130.958 124.984 118.738 112.233 105.49 98.5347 91.4014
          84.1321 76.7777 69.398 62.0616 54.8455 47.8333 41.1135 34.7759 28.9071 23.5849 18.8722 14.81
          11.4124 8.66319 6.51597 4.89955 3.72663 2.90496 2.34766 1.98032 1.74404 1.59504 1.50251 1.44561
          1.41077 1.38931 1.37574 1.36649 1.35908
        </DataArray>
        <DataArray type="Float32" Name="mobN" NumberOfComponents="1" format="ascii">
          1e+10 1e+10 1e+10 1e+10 1e+10 1e+10 1e+10 1e+10 1e+10 1e+10 1e+10 1e+10
          1e+10 1e+10 1e+10 1e+10 1e+10 1e+10 1e+10 1e+10 1e+10 1e+10 1e+10 1e+10
          1e+10 1e+10 1e+10 1e+10 1e+10 1e+10 1e+10 1e+10 1e+10 1e+10 1e+10 1e+10
          1e+10 1e+10 1e+10 1e+10 1e+10 1e+10 1e+10 1e+10 1e+10 1e+10 1e+10 1e+10
          1e+10 1e+10 1e+10 1e+10 1e+10 1e+10 1e+10 1e+10 1e+10 1e+10 1e+10 1e+10
          1e+10 1e+10 1e+10 1e+10 1e+10 1e+10 1e+10 1e+10 1e+10 1e+10 1e+10 1e+10
          1e+10 1e+10 1e+10 1e+10 1e+10 1e+10 1e+10 1e+10 1e+10 1e+10 1e+10 1e+10
          1e+10 1e+10 1e+10 1e+10 1e+10 1e+10 1e+10 1e+10 1e+10 1e+10 1e+10 1e+10
          1e+10 1e+10 1e+10 1e+10 1e+10
        </DataArray>
        <DataArray type="Float32" Name="porosity" NumberOfComponents="1" format="ascii">
          1 1 1 1 1 1 1 1 1 1 1 1
          1 1 1 1 1 1 1 1 1 1 1 1
          1 1 1 1 1 1 1 1 1 1 1 1
          1 1 1 1 1 1 1 1 1 1 1 1
          1 1 1 1 1 1 1 1 1 1 1 1
          1 1 1 1 1 1 1 1 1 1 1 1
          1 1 1 1 1 1 1 1 1 1 1 1
          1 1 1 1 1 1 1 1 1 1 1 1
          1 1 1 1 1
        </DataArray>
        <DataArray type="Float32" Name="temperature" NumberOfComponents="1" format="ascii">
          283.15 283.15 283.15 283.15 283.15 283.15 283.15 283.15 283.15 283.15 283.15 283.15
          283.15 283.15 283.15 283.15 283.15 283.15 283.15 283.15 283.15 283.15 283.15 283.15
          283.15 283.15 283.15 283.15 283.15 283.15 283.15 283.15 283.15 283.15 283.15 283.15
          283.15 283.15 283.15 283.15 283.15 283.15 283.15 283.15 283.15 283.15 283.15 283.15
          283.15 283.15 283.15 283.15 283.15 283.15 283.15 283.15 283.15 283.15 283.15 283.15
          283.15 283.15 283.15 283.15 283.15 283.15 283.15 283.15 283.15 283.15 283.15 283.15
          283.15 283.15 283.15 283.15 283.15 283.15 283.15 283.15 283.15 283.15 283.15 283.15
          283.15 283.15 283.15 283.15 283.15 283.15 283.15 283.15 283.15 283.15 283.15 283.15
          283.15 283.15 283.15 283.15 283.15
        </DataArray>
        <DataArray type="Float32" Name="pressure head" NumberOfComponents="1" format="ascii">
          -10 -10.0013 -10.0026 -10.0042 -10.0059 -10.0078 -10.0098 -10.0121 -10.0146 -10.0173 -10.0204 -10.0237
          -10.0273 -10.0313 -10.0357 -10.0405 -10.0457 -10.0515 -10.0577 -10.0646 -10.0721 -10.0804 -10.0893 -10.0991
          -10.1099 -10.1216 -10.1344 -10.1483 -10.1636 -10.1802 -10.1984 -10.2183 -10.2399 -10.2635 -10.2893 -10.3175
          -10.3482 -10.3817 -10.4183 -10.4583 -10.5019 -10.5494 -10.6014 -10.6581 -10.7201 -10.7877 -10.8617 -10.9424
          -11.0307 -11.1272 -11.2328 -11.3483 -11.4747 -11.613 -11.7646 -11.9307 -12.1129 -12.3128 -12.5323 -12.7735
          -13.0388 -13.3308 -13.6526 -14.0077 -14.3998 -14.8336 -15.3142 -15.8474 -16.44 -17.1001 -17.8369 -18.6613
          -19.5859 -20.626 -21.7995 -23.1277 -24.636 -26.3551 -28.3211 -30.5771 -33.1735 -36.1681 -39.624 -43.6054
          -48.1671 -53.3364 -59.0844 -65.2898 -71.7095 -77.9826 -83.6971 -88.5095 -92.2538 -94.9657 -96.8187 -98.0322
          -98.8058 -99.2946 -99.6088 -99.8252 -100
        </DataArray>
        <DataArray type="Float32" Name="water content" NumberOfComponents="1" format="ascii">
          0.407389 0.407385 0.407381 0.407376 0.407371 0.407365 0.407358 0.407351 0.407343 0.407335 0.407326 0.407315
          0.407304 0.407291 0.407278 0.407263 0.407246 0.407229 0.407209 0.407188 0.407164 0.407138 0.40711 0.40708
          0.407046 0.40701 0.40697 0.406926 0.406879 0.406827 0.40677 0.406708 0.40664 0.406566 0.406485 0.406397
          0.406301 0.406196 0.406081 0.405955 0.405818 0.405669 0.405505 0.405326 0.405131 0.404917 0.404684 0.404428
          0.404149 0.403842 0.403507 0.40314 0.402737 0.402296 0.401812 0.40128 0.400696 0.400054 0.399348 0.398571
          0.397716 0.396772 0.395732 0.394583 0.393313 0.391908 0.390353 0.38863 0.38672 0.384599 0.382243 0.379624
          0.376711 0.373471 0.369865 0.365854 0.361396 0.356447 0.350965 0.344912 0.338258 0.33099 0.32312 0.314697
          0.305823 0.296666 0.287469 0.278549 0.270266 0.262967 0.256908 0.25219 0.248737 0.246345 0.244761 0.243745
          0.243106 0.242705 0.242449 0.242273 0.242132
        </DataArray>
      </PointData>
      <CellData Scalars="process rank">
        <DataArray type="Float32" Name="process rank" NumberOfComponents="1" format="ascii">
          0 0 0 0 0 0 0 0 0 0 0 0
          0 0 0 0 0 0 0 0 0 0 0 0
          0 0 0 0 0 0 0 0 0 0 0 0
          0 0 0 0 0 0 0 0 0 0 0 0
          0 0 0 0 0 0 0 0 0 0 0 0
          0 0 0 0 0 0 0 0 0 0 0 0
          0 0 0 0 0 0 0 0 0 0 0 0
          0 0 0 0 0 0 0 0 0 0 0 0
          0 0 0 0
        </DataArray>
      </CellData>
      <Points>
        <DataArray type="Float32" Name="Coordinates" NumberOfComponents="3" format="ascii">
          0 0 0 -0.01 0 0 -0.02 0 0 -0.03 0 0
          -0.04 0 0 -0.05 0 0 -0.06 0 0 -0.07 0 0
          -0.08 0 0 -0.09 0 0 -0.1 0 0 -0.11 0 0
          -0.12 0 0 -0.13 0 0 -0.14 0 0 -0.15 0 0
          -0.16 0 0 -0.17 0 0 -0.18 0 0 -0.19 0 0
          -0.2 0 0 -0.21 0 0 -0.22 0 0 -0.23 0 0
          -0.24 0 0 -0.25 0 0 -0.26 0 0 -0.27 0 0
          -0.28 0 0 -0.29 0 0 -0.3 0 0 -0.31 0 0
          -0.32 0 0 -0.33 0 0 -0.34 0 0 -0.35 0 0
          -0.36 0 0 -0.37 0 0 -0.38 0 0 -0.39 0 0
          -0.4 0 0 -0.41 0 0 -0.42 0 0 -0.43 0 0
          -0.44 0 0 -0.45 0 0 -0.46 0 0 -0.47 0 0
          -0.48 0 0 -0.49 0 0 -0.5 0 0 -0.51 0 0
          -0.52 0 0 -0.53 0 0 -0.54 0 0 -0.55 0 0
          -0.56 0 0 -0.57 0 0 -0.58 0 0 -0.59 0 0
          -0.6 0 0 -0.61 0 0 -0.62 0 0 -0.63 0 0
          -0.64 0 0 -0.65 0 0 -0.66 0 0 -0.67 0 0
          -0.68 0 0 -0.69 0 0 -0.7 0 0 -0.71 0 0
          -0.72 0 0 -0.73 0 0 -0.74 0 0 -0.75 0 0
          -0.76 0 0 -0.77 0 0 -0.78 0 0 -0.79 0 0
          -0.8 0 0 -0.81 0 0 -0.82 0 0 -0.83 0 0
          -0.84 0 0 -0.85 0 0 -0.86 0 0 -0.87 0 0
          -0.88 0 0 -0.89 0 0 -0.9 0 0 -0.91 0 0
          -0.92 0 0 -0.93 0 0 -0.94 0 0 -0.95 0 0
          -0.96 0 0 -0.97 0 0 -0.98 0 0 -0.99 0 0
          -1 0 0
        </DataArray>
      </Points>
      <Lines>
        <DataArray type="Int32" Name="connectivity" NumberOfComponents="1" format="ascii">
          0 1 1 2 2 3 3 4 4 5 5 6
          6 7 7 8 8 9 9 10 10 11 11 12
          12 13 13 14 14 15 15 16 16 17 17 18
          18 19 19 20 20 21 21 22 22 23 23 24
          24 25 25 26 26 27 27 28 28 29 29 30
          30 31 31 32 32 33 33 34 34 35 35 36
          36 37 37 38 38 39 39 40 40 41 41 42
          42 43 43 44 44 45 45 46 46 47 47 48
          48 49 49 50 50 51 51 52 52 53 53 54
          54 55 55 56 56 57 57 58 58 59 59 60
          60 61 61 62 62 63 63 64 64 65 65 66
          66 67 67 68 68 69 69 70 70 71 71 72
          72 73 73 74 74 75 75 76 76 77 77 78
          78 79 79 80 80 81 81 82 82 83 83 84
          84 85 85 86 86 87 87 88 88 89 89 90
          90 91 91 92 92 93 93 94 94 95 95 96
          96 97 97 98 98 99 99 100
        </DataArray>
        <DataArray type="Int32" Name="offsets" NumberOfComponents="1" format="ascii">
          2 4 6 8 10 12 14 16 18 20 22 24
          26 28 30 32 34 36 38 40 42 44 46 48
          50 52 54 56 58 60 62 64 66 68 70 72
          74 76 78 80 82 84 86 88 90 92 94 96
          98 100 102 104 106 108 110 112 114 116 118 120
          122 124 126 128 130 132 134 136 138 140 142 144
          146 148 150 152 154 156 158 160 162 164 166 168
          170 172 174 176 178 180 182 184 186 188 190 192
          194 196 198 200
        </DataArray>
      </Lines>
    </Piece>
  </PolyData>
</VTKFile>
