<?xml version="1.0"?>
<VTKFile type="PolyData" version="0.1" byte_order="LittleEndian">
  <PolyData>
    <Piece NumberOfLines="100" NumberOfPoints="101">
      <PointData Scalars="Sn">
        <DataArray type="Float32" Name="Sn" NumberOfComponents="1" format="ascii">
          0.572658 0.5714 0.57022 0.569111 0.56807 0.567089 0.566166 0.565296 0.564476 0.563701 0.56297 0.562278
          0.561623 0.561003 0.560416 0.559858 0.559329 0.558826 0.558348 0.557893 0.557459 0.557045 0.556649 0.556271
          0.555908 0.55556 0.555226 0.554904 0.554592 0.55429 0.553997 0.553711 0.55343 0.553154 0.552881 0.552609
          0.552336 0.552062 0.551783 0.551498 0.551204 0.550899 0.550581 0.550246 0.549891 0.549515 0.549112 0.548681
          0.548219 0.547722 0.54719 0.54662 0.546012 0.545367 0.54469 0.543984 0.54326 0.542529 0.541809 0.541124
          0.540514 0.540057 0.54 0.54 0.54 0.54 0.54 0.54 0.54 0.54 0.54 0.54
          0.54 0.54 0.54 0.54 0.54 0.54 0.54 0.54 0.54 0.54 0.54 0.54
          0.54 0.54 0.54 0.54 0.54 0.54 0.54 0.54 0.54 0.54 0.54 0.54
          0.54 0.54 0.54 0.54 0.54
        </DataArray>
        <DataArray type="Float32" Name="Sw" NumberOfComponents="1" format="ascii">
          0.427342 0.4286 0.42978 0.430889 0.431931 0.432911 0.433834 0.434704 0.435524 0.436299 0.43703 0.437722
          0.438377 0.438997 0.439584 0.440142 0.440671 0.441174 0.441652 0.442107 0.442541 0.442955 0.443351 0.443729
          0.444092 0.44444 0.444774 0.445096 0.445408 0.44571 0.446003 0.446289 0.44657 0.446846 0.447119 0.447391
          0.447664 0.447938 0.448217 0.448502 0.448796 0.449101 0.449419 0.449754 0.450109 0.450485 0.450888 0.451319
          0.451781 0.452278 0.45281 0.45338 0.453988 0.454633 0.45531 0.456016 0.45674 0.457471 0.458191 0.458876
          0.459486 0.459943 0.46 0.46 0.46 0.46 0.46 0.46 0.46 0.46 0.46 0.46
          0.46 0.46 0.46 0.46 0.46 0.46 0.46 0.46 0.46 0.46 0.46 0.46
          0.46 0.46 0.46 0.46 0.46 0.46 0.46 0.46 0.46 0.46 0.46 0.46
          0.46 0.46 0.46 0.46 0.46
        </DataArray>
        <DataArray type="Float32" Name="pn" NumberOfComponents="1" format="ascii">
          100000 100000 100000 100000 100000 100000 100000 100000 100000 100000 100000 100000
          100000 100000 100000 100000 100000 100000 100000 100000 100000 100000 100000 100000
          100000 100000 100000 100000 100000 100000 100000 100000 100000 100000 100000 100000
          100000 100000 100000 100000 100000 100000 100000 100000 100000 100000 100000 100000
          100000 100000 100000 100000 100000 100000 100000 100000 100000 100000 100000 100000
          100000 100000 100073 100171 100269 100367 100465 100563 100662 100760 100858 100956
          101054 101152 101250 101348 101446 101544 101643 101741 101839 101937 102035 102133
          102231 102329 102427 102525 102624 102722 102820 102918 103016 103114 103212 103310
          103408 103506 103605 103703 103801
        </DataArray>
        <DataArray type="Float32" Name="pw" NumberOfComponents="1" format="ascii">
          97189 97283.9 97372.7 97456 97534.3 97607.9 97677.1 97742.4 97804.1 97862.3 97917.3 97969.4
          98018.8 98065.6 98110.1 98152.4 98192.6 98230.8 98267.3 98302.1 98335.4 98367.2 98397.6 98426.8
          98454.9 98481.9 98507.9 98533 98557.4 98581 98604.1 98626.6 98648.8 98670.7 98692.4 98714.1
          98735.9 98757.9 98780.4 98803.4 98827.3 98852.1 98878.2 98905.8 98935.1 98966.5 99000.2 99036.7
          99076.2 99119.1 99165.7 99216.4 99271.4 99331 99395.5 99464.8 99539.1 99618.2 99702 99789.9
          99881.6 99976.3 100073 100171 100269 100367 100465 100563 100662 100760 100858 100956
          101054 101152 101250 101348 101446 101544 101643 101741 101839 101937 102035 102133
          102231 102329 102427 102525 102624 102722 102820 102918 103016 103114 103212 103310
          103408 103506 103605 103703 103801
        </DataArray>
        <DataArray type="Float32" Name="pc" NumberOfComponents="1" format="ascii">
          2811.03 2716.15 2627.29 2543.96 2465.71 2392.12 2322.85 2257.56 2195.94 2137.73 2082.69 2030.58
          1981.2 1934.37 1889.9 1847.64 1807.44 1769.16 1732.68 1697.86 1664.61 1632.81 1602.35 1573.15
          1545.11 1518.12 1492.11 1466.97 1442.62 1418.97 1395.91 1373.35 1351.18 1329.29 1307.57 1285.89
          1264.1 1242.06 1219.61 1196.56 1172.73 1147.89 1121.81 1094.25 1064.92 1033.53 999.771 963.31
          923.808 880.918 834.3 783.625 728.596 668.957 604.516 535.158 460.87 381.752 298.035 210.088
          118.429 23.723 0 0 0 0 0 0 0 0 0 0
          0 0 0 0 0 0 0 0 0 0 0 0
          0 0 0 0 0 0 0 0 0 0 0 0
          0 0 0 0 0
        </DataArray>
        <DataArray type="Float32" Name="rhoW" NumberOfComponents="1" format="ascii">
          1000 1000 1000 1000 1000 1000 1000 1000 1000 1000 1000 1000
          1000 1000 1000 1000 1000 1000 1000 1000 1000 1000 1000 1000
          1000 1000 1000 1000 1000 1000 1000 1000 1000 1000 1000 1000
          1000 1000 1000 1000 1000 1000 1000 1000 1000 1000 1000 1000
          1000 1000 1000 1000 1000 1000 1000 1000 1000 1000 1000 1000
          1000 1000 1000 1000 1000 1000 1000 1000 1000 1000 1000 1000
          1000 1000 1000 1000 1000 1000 1000 1000 1000 1000 1000 1000
          1000 1000 1000 1000 1000 1000 1000 1000 1000 1000 1000 1000
          1000 1000 1000 1000 1000
        </DataArray>
        <DataArray type="Float32" Name="rhoN" NumberOfComponents="1" format="ascii">
          1e-10 1e-10 1e-10 1e-10 1e-10 1e-10 1e-10 1e-10 1e-10 1e-10 1e-10 1e-10
          1e-10 1e-10 1e-10 1e-10 1e-10 1e-10 1e-10 1e-10 1e-10 1e-10 1e-10 1e-10
          1e-10 1e-10 1e-10 1e-10 1e-10 1e-10 1e-10 1e-10 1e-10 1e-10 1e-10 1e-10
          1e-10 1e-10 1e-10 1e-10 1e-10 1e-10 1e-10 1e-10 1e-10 1e-10 1e-10 1e-10
          1e-10 1e-10 1e-10 1e-10 1e-10 1e-10 1e-10 1e-10 1e-10 1e-10 1e-10 1e-10
          1e-10 1e-10 1e-10 1e-10 1e-10 1e-10 1e-10 1e-10 1e-10 1e-10 1e-10 1e-10
          1e-10 1e-10 1e-10 1e-10 1e-10 1e-10 1e-10 1e-10 1e-10 1e-10 1e-10 1e-10
          1e-10 1e-10 1e-10 1e-10 1e-10 1e-10 1e-10 1e-10 1e-10 1e-10 1e-10 1e-10
          1e-10 1e-10 1e-10 1e-10 1e-10
        </DataArray>
        <DataArray type="Float32" Name="mobW" NumberOfComponents="1" format="ascii">
          91.2098 95.2815 99.3194 103.319 107.275 111.186 115.046 118.855 122.608 126.306 129.945 133.525
          137.044 140.503 143.901 147.237 150.512 153.728 156.883 159.98 163.02 166.006 168.938 171.82
          174.656 177.448 180.201 182.921 185.613 188.285 190.943 193.598 196.26 198.942 201.658 204.425
          207.263 210.193 213.244 216.446 219.834 223.452 227.349 231.584 236.226 241.356 247.073 253.492
          260.752 269.024 278.513 289.476 302.234 317.198 334.91 356.106 381.833 413.682 454.299 508.764
          589.654 760.255 1000 1000 1000 1000 1000 1000 1000 1000 1000 1000
          1000 1000 1000 1000 1000 1000 1000 1000 1000 1000 1000 1000
          1000 1000 1000 1000 1000 1000 1000 1000 1000 1000 1000 1000
          1000 1000 1000 1000 1000
        </DataArray>
        <DataArray type="Float32" Name="mobN" NumberOfComponents="1" format="ascii">
          1e+10 1e+10 1e+10 1e+10 1e+10 1e+10 1e+10 1e+10 1e+10 1e+10 1e+10 1e+10
          1e+10 1e+10 1e+10 1e+10 1e+10 1e+10 1e+10 1e+10 1e+10 1e+10 1e+10 1e+10
          1e+10 1e+10 1e+10 1e+10 1e+10 1e+10 1e+10 1e+10 1e+10 1e+10 1e+10 1e+10
          1e+10 1e+10 1e+10 1e+10 1e+10 1e+10 1e+10 1e+10 1e+10 1e+10 1e+10 1e+10
          1e+10 1e+10 1e+10 1e+10 1e+10 1e+10 1e+10 1e+10 1e+10 1e+10 1e+10 1e+10
          1e+10 1e+10 1e+10 1e+10 1e+10 1e+10 1e+10 1e+10 1e+10 1e+10 1e+10 1e+10
          1e+10 1e+10 1e+10 1e+10 1e+10 1e+10 1e+10 1e+10 1e+10 1e+10 1e+10 1e+10
          1e+10 1e+10 1e+10 1e+10 1e+10 1e+10 1e+10 1e+10 1e+10 1e+10 1e+10 1e+10
          1e+10 1e+10 1e+10 1e+10 1e+10
        </DataArray>
        <DataArray type="Float32" Name="porosity" NumberOfComponents="1" format="ascii">
          1 1 1 1 1 1 1 1 1 1 1 1
          1 1 1 1 1 1 1 1 1 1 1 1
          1 1 1 1 1 1 1 1 1 1 1 1
          1 1 1 1 1 1 1 1 1 1 1 1
          1 1 1 1 1 1 1 1 1 1 1 1
          1 1 1 1 1 1 1 1 1 1 1 1
          1 1 1 1 1 1 1 1 1 1 1 1
          1 1 1 1 1 1 1 1 1 1 1 1
          1 1 1 1 1
        </DataArray>
        <DataArray type="Float32" Name="temperature" NumberOfComponents="1" format="ascii">
          283.15 283.15 283.15 283.15 283.15 283.15 283.15 283.15 283.15 283.15 283.15 283.15
          283.15 283.15 283.15 283.15 283.15 283.15 283.15 283.15 283.15 283.15 283.15 283.15
          283.15 283.15 283.15 283.15 283.15 283.15 283.15 283.15 283.15 283.15 283.15 283.15
          283.15 283.15 283.15 283.15 283.15 283.15 283.15 283.15 283.15 283.15 283.15 283.15
          283.15 283.15 283.15 283.15 283.15 283.15 283.15 283.15 283.15 283.15 283.15 283.15
          283.15 283.15 283.15 283.15 283.15 283.15 283.15 283.15 283.15 283.15 283.15 283.15
          283.15 283.15 283.15 283.15 283.15 283.15 283.15 283.15 283.15 283.15 283.15 283.15
          283.15 283.15 283.15 283.15 283.15 283.15 283.15 283.15 283.15 283.15 283.15 283.15
          283.15 283.15 283.15 283.15 283.15
        </DataArray>
        <DataArray type="Float32" Name="pressure head" NumberOfComponents="1" format="ascii">
          -28.6547 -27.6875 -26.7818 -25.9323 -25.1346 -24.3846 -23.6784 -23.0128 -22.3847 -21.7914 -21.2303 -20.6991
          -20.1957 -19.7183 -19.265 -18.8342 -18.4244 -18.0343 -17.6623 -17.3075 -16.9685 -16.6443 -16.3339 -16.0362
          -15.7503 -15.4752 -15.2101 -14.9538 -14.7056 -14.4645 -14.2294 -13.9995 -13.7735 -13.5504 -13.329 -13.1079
          -12.8858 -12.6612 -12.4323 -12.1974 -11.9544 -11.7012 -11.4354 -11.1544 -10.8554 -10.5355 -10.1913 -9.81968
          -9.417 -8.9798 -8.50458 -7.98802 -7.42708 -6.81914 -6.16224 -5.45523 -4.69796 -3.89146 -3.03807 -2.14157
          -1.20722 -0.241825 0.746185 1.74379 2.74379 3.74379 4.74379 5.74379 6.74379 7.74379 8.74379 9.74379
          10.7438 11.7438 12.7438 13.7438 14.7438 15.7438 16.7438 17.7438 18.7438 19.7438 20.7438 21.7438
          22.7438 23.7438 24.7438 25.7438 26.7438 27.7438 28.7438 29.7438 30.7438 31.7438 32.7438 33.7438
          34.7438 35.7438 36.7438 37.7438 38.7438
        </DataArray>
        <DataArray type="Float32" Name="water content" NumberOfComponents="1" format="ascii">
          0.427342 0.4286 0.42978 0.430889 0.431931 0.432911 0.433834 0.434704 0.435524 0.436299 0.43703 0.437722
          0.438377 0.438997 0.439584 0.440142 0.440671 0.441174 0.441652 0.442107 0.442541 0.442955 0.443351 0.443729
          0.444092 0.44444 0.444774 0.445096 0.445408 0.44571 0.446003 0.446289 0.44657 0.446846 0.447119 0.447391
          0.447664 0.447938 0.448217 0.448502 0.448796 0.449101 0.449419 0.449754 0.450109 0.450485 0.450888 0.451319
          0.451781 0.452278 0.45281 0.45338 0.453988 0.454633 0.45531 0.456016 0.45674 0.457471 0.458191 0.458876
          0.459486 0.459943 0.46 0.46 0.46 0.46 0.46 0.46 0.46 0.46 0.46 0.46
          0.46 0.46 0.46 0.46 0.46 0.46 0.46 0.46 0.46 0.46 0.46 0.46
          0.46 0.46 0.46 0.46 0.46 0.46 0.46 0.46 0.46 0.46 0.46 0.46
          0.46 0.46 0.46 0.46 0.46
        </DataArray>
      </PointData>
      <CellData Scalars="process rank">
        <DataArray type="Float32" Name="process rank" NumberOfComponents="1" format="ascii">
          0 0 0 0 0 0 0 0 0 0 0 0
          0 0 0 0 0 0 0 0 0 0 0 0
          0 0 0 0 0 0 0 0 0 0 0 0
          0 0 0 0 0 0 0 0 0 0 0 0
          0 0 0 0 0 0 0 0 0 0 0 0
          0 0 0 0 0 0 0 0 0 0 0 0
          0 0 0 0 0 0 0 0 0 0 0 0
          0 0 0 0 0 0 0 0 0 0 0 0
          0 0 0 0
        </DataArray>
      </CellData>
      <Points>
        <DataArray type="Float32" Name="Coordinates" NumberOfComponents="3" format="ascii">
          0 0 0 -0.01 0 0 -0.02 0 0 -0.03 0 0
          -0.04 0 0 -0.05 0 0 -0.06 0 0 -0.07 0 0
          -0.08 0 0 -0.09 0 0 -0.1 0 0 -0.11 0 0
          -0.12 0 0 -0.13 0 0 -0.14 0 0 -0.15 0 0
          -0.16 0 0 -0.17 0 0 -0.18 0 0 -0.19 0 0
          -0.2 0 0 -0.21 0 0 -0.22 0 0 -0.23 0 0
          -0.24 0 0 -0.25 0 0 -0.26 0 0 -0.27 0 0
          -0.28 0 0 -0.29 0 0 -0.3 0 0 -0.31 0 0
          -0.32 0 0 -0.33 0 0 -0.34 0 0 -0.35 0 0
          -0.36 0 0 -0.37 0 0 -0.38 0 0 -0.39 0 0
          -0.4 0 0 -0.41 0 0 -0.42 0 0 -0.43 0 0
          -0.44 0 0 -0.45 0 0 -0.46 0 0 -0.47 0 0
          -0.48 0 0 -0.49 0 0 -0.5 0 0 -0.51 0 0
          -0.52 0 0 -0.53 0 0 -0.54 0 0 -0.55 0 0
          -0.56 0 0 -0.57 0 0 -0.58 0 0 -0.59 0 0
          -0.6 0 0 -0.61 0 0 -0.62 0 0 -0.63 0 0
          -0.64 0 0 -0.65 0 0 -0.66 0 0 -0.67 0 0
          -0.68 0 0 -0.69 0 0 -0.7 0 0 -0.71 0 0
          -0.72 0 0 -0.73 0 0 -0.74 0 0 -0.75 0 0
          -0.76 0 0 -0.77 0 0 -0.78 0 0 -0.79 0 0
          -0.8 0 0 -0.81 0 0 -0.82 0 0 -0.83 0 0
          -0.84 0 0 -0.85 0 0 -0.86 0 0 -0.87 0 0
          -0.88 0 0 -0.89 0 0 -0.9 0 0 -0.91 0 0
          -0.92 0 0 -0.93 0 0 -0.94 0 0 -0.95 0 0
          -0.96 0 0 -0.97 0 0 -0.98 0 0 -0.99 0 0
          -1 0 0
        </DataArray>
      </Points>
      <Lines>
        <DataArray type="Int32" Name="connectivity" NumberOfComponents="1" format="ascii">
          0 1 1 2 2 3 3 4 4 5 5 6
          6 7 7 8 8 9 9 10 10 11 11 12
          12 13 13 14 14 15 15 16 16 17 17 18
          18 19 19 20 20 21 21 22 22 23 23 24
          24 25 25 26 26 27 27 28 28 29 29 30
          30 31 31 32 32 33 33 34 34 35 35 36
          36 37 37 38 38 39 39 40 40 41 41 42
          42 43 43 44 44 45 45 46 46 47 47 48
          48 49 49 50 50 51 51 52 52 53 53 54
          54 55 55 56 56 57 57 58 58 59 59 60
          60 61 61 62 62 63 63 64 64 65 65 66
          66 67 67 68 68 69 69 70 70 71 71 72
          72 73 73 74 74 75 75 76 76 77 77 78
          78 79 79 80 80 81 81 82 82 83 83 84
          84 85 85 86 86 87 87 88 88 89 89 90
          90 91 91 92 92 93 93 94 94 95 95 96
          96 97 97 98 98 99 99 100
        </DataArray>
        <DataArray type="Int32" Name="offsets" NumberOfComponents="1" format="ascii">
          2 4 6 8 10 12 14 16 18 20 22 24
          26 28 30 32 34 36 38 40 42 44 46 48
          50 52 54 56 58 60 62 64 66 68 70 72
          74 76 78 80 82 84 86 88 90 92 94 96
          98 100 102 104 106 108 110 112 114 116 118 120
          122 124 126 128 130 132 134 136 138 140 142 144
          146 148 150 152 154 156 158 160 162 164 166 168
          170 172 174 176 178 180 182 184 186 188 190 192
          194 196 198 200
        </DataArray>
      </Lines>
    </Piece>
  </PolyData>
</VTKFile>
