<?xml version="1.0"?>
<VTKFile type="PolyData" version="0.1" byte_order="LittleEndian">
  <PolyData>
    <Piece NumberOfLines="100" NumberOfPoints="101">
      <PointData Scalars="Sn">
        <DataArray type="Float32" Name="Sn" NumberOfComponents="1" format="ascii">
          0.634215 0.633352 0.632505 0.631675 0.63086 0.630061 0.629277 0.628508 0.627753 0.627011 0.626284 0.625569
          0.624867 0.624178 0.6235 0.622835 0.622181 0.621538 0.620907 0.620286 0.619676 0.619076 0.618486 0.617905
          0.617335 0.616774 0.616222 0.615679 0.615145 0.61462 0.614103 0.613594 0.613094 0.612602 0.612118 0.611641
          0.611172 0.610711 0.610257 0.60981 0.609371 0.608938 0.608513 0.608094 0.607683 0.607278 0.606879 0.606488
          0.606102 0.605724 0.605351 0.604985 0.604625 0.604271 0.603924 0.603583 0.603248 0.602919 0.602596 0.602279
          0.601968 0.601663 0.601365 0.601072 0.600785 0.600505 0.60023 0.599962 0.599699 0.599443 0.599193 0.59895
          0.598712 0.598481 0.598257 0.598039 0.597827 0.597623 0.597425 0.597233 0.597049 0.596872 0.596702 0.596539
          0.596384 0.596237 0.596097 0.595965 0.595842 0.595727 0.59562 0.595522 0.595434 0.595354 0.595284 0.595224
          0.595174 0.595135 0.595106 0.595089 0.595083
        </DataArray>
        <DataArray type="Float32" Name="Sw" NumberOfComponents="1" format="ascii">
          0.365785 0.366648 0.367495 0.368325 0.36914 0.369939 0.370723 0.371492 0.372247 0.372989 0.373716 0.374431
          0.375133 0.375822 0.3765 0.377165 0.377819 0.378462 0.379093 0.379714 0.380324 0.380924 0.381514 0.382095
          0.382665 0.383226 0.383778 0.384321 0.384855 0.38538 0.385897 0.386406 0.386906 0.387398 0.387882 0.388359
          0.388828 0.389289 0.389743 0.39019 0.390629 0.391062 0.391487 0.391906 0.392317 0.392722 0.393121 0.393512
          0.393898 0.394277 0.394649 0.395015 0.395375 0.395728 0.396076 0.396417 0.396752 0.397081 0.397404 0.397721
          0.398032 0.398337 0.398635 0.398928 0.399215 0.399495 0.39977 0.400038 0.400301 0.400557 0.400807 0.40105
          0.401288 0.401519 0.401743 0.401961 0.402173 0.402377 0.402576 0.402767 0.402951 0.403128 0.403298 0.403461
          0.403616 0.403763 0.403903 0.404035 0.404158 0.404273 0.40438 0.404478 0.404566 0.404646 0.404716 0.404776
          0.404826 0.404865 0.404894 0.404911 0.404917
        </DataArray>
        <DataArray type="Float32" Name="pn" NumberOfComponents="1" format="ascii">
          100000 100000 100000 100000 100000 100000 100000 100000 100000 100000 100000 100000
          100000 100000 100000 100000 100000 100000 100000 100000 100000 100000 100000 100000
          100000 100000 100000 100000 100000 100000 100000 100000 100000 100000 100000 100000
          100000 100000 100000 100000 100000 100000 100000 100000 100000 100000 100000 100000
          100000 100000 100000 100000 100000 100000 100000 100000 100000 100000 100000 100000
          100000 100000 100000 100000 100000 100000 100000 100000 100000 100000 100000 100000
          100000 100000 100000 100000 100000 100000 100000 100000 100000 100000 100000 100000
          100000 100000 100000 100000 100000 100000 100000 100000 100000 100000 100000 100000
          100000 100000 100000 100000 100000
        </DataArray>
        <DataArray type="Float32" Name="pw" NumberOfComponents="1" format="ascii">
          91664.5 91761.2 91855.3 91946.9 92036.1 92123 92207.6 92290.1 92370.5 92449 92525.5 92600.1
          92673 92744.2 92813.7 92881.6 92948 93012.8 93076.2 93138.2 93198.9 93258.2 93316.3 93373.1
          93428.7 93483.2 93536.5 93588.7 93639.9 93690 93739.1 93787.2 93834.3 93880.5 93925.9 93970.3
          94013.8 94056.5 94098.4 94139.5 94179.7 94219.2 94257.9 94295.9 94333.2 94369.7 94405.6 94440.7
          94475.2 94509 94542.1 94574.6 94606.5 94637.7 94668.3 94698.3 94727.7 94756.5 94784.7 94812.3
          94839.3 94865.7 94891.6 94916.9 94941.6 94965.7 94989.3 95012.4 95034.8 95056.7 95078 95098.8
          95119 95138.6 95157.6 95176.1 95194 95211.3 95228 95244.1 95259.6 95274.5 95288.8 95302.4
          95315.4 95327.8 95339.5 95350.5 95360.8 95370.4 95379.3 95387.5 95394.8 95401.5 95407.3 95412.3
          95416.4 95419.7 95422.1 95423.5 95424
        </DataArray>
        <DataArray type="Float32" Name="pc" NumberOfComponents="1" format="ascii">
          8335.53 8238.79 8144.66 8053.06 7963.87 7877.01 7792.37 7709.89 7629.47 7551.04 7474.53 7399.86
          7326.97 7255.81 7186.3 7118.4 7052.04 6987.18 6923.78 6861.77 6801.12 6741.79 6683.74 6626.92
          6571.3 6516.85 6463.53 6411.3 6360.15 6310.04 6260.94 6212.82 6165.67 6119.45 6074.14 6029.73
          5986.18 5943.48 5901.6 5860.54 5820.28 5780.78 5742.05 5704.07 5666.81 5630.27 5594.43 5559.28
          5524.82 5491.02 5457.88 5425.38 5393.52 5362.3 5331.69 5301.7 5272.31 5243.53 5215.34 5187.73
          5160.72 5134.28 5108.42 5083.13 5058.41 5034.26 5010.67 4987.65 4965.19 4943.3 4921.98 4901.22
          4881.03 4861.41 4842.36 4823.89 4806 4788.7 4771.99 4755.88 4740.37 4725.48 4711.2 4697.56
          4684.56 4672.21 4660.53 4649.52 4639.2 4629.59 4620.7 4612.55 4605.15 4598.54 4592.72 4587.72
          4583.57 4580.29 4577.91 4576.45 4575.96
        </DataArray>
        <DataArray type="Float32" Name="rhoW" NumberOfComponents="1" format="ascii">
          1000 1000 1000 1000 1000 1000 1000 1000 1000 1000 1000 1000
          1000 1000 1000 1000 1000 1000 1000 1000 1000 1000 1000 1000
          1000 1000 1000 1000 1000 1000 1000 1000 1000 1000 1000 1000
          1000 1000 1000 1000 1000 1000 1000 1000 1000 1000 1000 1000
          1000 1000 1000 1000 1000 1000 1000 1000 1000 1000 1000 1000
          1000 1000 1000 1000 1000 1000 1000 1000 1000 1000 1000 1000
          1000 1000 1000 1000 1000 1000 1000 1000 1000 1000 1000 1000
          1000 1000 1000 1000 1000 1000 1000 1000 1000 1000 1000 1000
          1000 1000 1000 1000 1000
        </DataArray>
        <DataArray type="Float32" Name="rhoN" NumberOfComponents="1" format="ascii">
          1e-10 1e-10 1e-10 1e-10 1e-10 1e-10 1e-10 1e-10 1e-10 1e-10 1e-10 1e-10
          1e-10 1e-10 1e-10 1e-10 1e-10 1e-10 1e-10 1e-10 1e-10 1e-10 1e-10 1e-10
          1e-10 1e-10 1e-10 1e-10 1e-10 1e-10 1e-10 1e-10 1e-10 1e-10 1e-10 1e-10
          1e-10 1e-10 1e-10 1e-10 1e-10 1e-10 1e-10 1e-10 1e-10 1e-10 1e-10 1e-10
          1e-10 1e-10 1e-10 1e-10 1e-10 1e-10 1e-10 1e-10 1e-10 1e-10 1e-10 1e-10
          1e-10 1e-10 1e-10 1e-10 1e-10 1e-10 1e-10 1e-10 1e-10 1e-10 1e-10 1e-10
          1e-10 1e-10 1e-10 1e-10 1e-10 1e-10 1e-10 1e-10 1e-10 1e-10 1e-10 1e-10
          1e-10 1e-10 1e-10 1e-10 1e-10 1e-10 1e-10 1e-10 1e-10 1e-10 1e-10 1e-10
          1e-10 1e-10 1e-10 1e-10 1e-10
        </DataArray>
        <DataArray type="Float32" Name="mobW" NumberOfComponents="1" format="ascii">
          14.3312 14.6895 15.0496 15.4112 15.7744 16.1389 16.5048 16.8719 17.2403 17.6098 17.9803 18.3518
          18.7242 19.0974 19.4715 19.8462 20.2216 20.5975 20.974 21.3509 21.7282 22.1058 22.4837 22.8618
          23.2399 23.6182 23.9964 24.3746 24.7527 25.1305 25.5081 25.8854 26.2622 26.6386 27.0145 27.3897
          27.7643 28.1381 28.5111 28.8832 29.2543 29.6244 29.9933 30.361 30.7274 31.0924 31.4559 31.8178
          32.1781 32.5366 32.8932 33.2478 33.6004 33.9508 34.2988 34.6445 34.9876 35.328 35.6656 36.0003
          36.3318 36.6602 36.9852 37.3066 37.6244 37.9383 38.2481 38.5538 38.855 39.1517 39.4435 39.7304
          40.012 40.2882 40.5587 40.8233 41.0817 41.3337 41.579 41.8174 42.0485 42.272 42.4877 42.6952
          42.8942 43.0843 43.2653 43.4367 43.5981 43.7492 43.8896 44.0188 44.1364 44.242 44.3352 44.4154
          44.4822 44.535 44.5735 44.597 44.605
        </DataArray>
        <DataArray type="Float32" Name="mobN" NumberOfComponents="1" format="ascii">
          1e+10 1e+10 1e+10 1e+10 1e+10 1e+10 1e+10 1e+10 1e+10 1e+10 1e+10 1e+10
          1e+10 1e+10 1e+10 1e+10 1e+10 1e+10 1e+10 1e+10 1e+10 1e+10 1e+10 1e+10
          1e+10 1e+10 1e+10 1e+10 1e+10 1e+10 1e+10 1e+10 1e+10 1e+10 1e+10 1e+10
          1e+10 1e+10 1e+10 1e+10 1e+10 1e+10 1e+10 1e+10 1e+10 1e+10 1e+10 1e+10
          1e+10 1e+10 1e+10 1e+10 1e+10 1e+10 1e+10 1e+10 1e+10 1e+10 1e+10 1e+10
          1e+10 1e+10 1e+10 1e+10 1e+10 1e+10 1e+10 1e+10 1e+10 1e+10 1e+10 1e+10
          1e+10 1e+10 1e+10 1e+10 1e+10 1e+10 1e+10 1e+10 1e+10 1e+10 1e+10 1e+10
          1e+10 1e+10 1e+10 1e+10 1e+10 1e+10 1e+10 1e+10 1e+10 1e+10 1e+10 1e+10
          1e+10 1e+10 1e+10 1e+10 1e+10
        </DataArray>
        <DataArray type="Float32" Name="porosity" NumberOfComponents="1" format="ascii">
          1 1 1 1 1 1 1 1 1 1 1 1
          1 1 1 1 1 1 1 1 1 1 1 1
          1 1 1 1 1 1 1 1 1 1 1 1
          1 1 1 1 1 1 1 1 1 1 1 1
          1 1 1 1 1 1 1 1 1 1 1 1
          1 1 1 1 1 1 1 1 1 1 1 1
          1 1 1 1 1 1 1 1 1 1 1 1
          1 1 1 1 1 1 1 1 1 1 1 1
          1 1 1 1 1
        </DataArray>
        <DataArray type="Float32" Name="temperature" NumberOfComponents="1" format="ascii">
          283.15 283.15 283.15 283.15 283.15 283.15 283.15 283.15 283.15 283.15 283.15 283.15
          283.15 283.15 283.15 283.15 283.15 283.15 283.15 283.15 283.15 283.15 283.15 283.15
          283.15 283.15 283.15 283.15 283.15 283.15 283.15 283.15 283.15 283.15 283.15 283.15
          283.15 283.15 283.15 283.15 283.15 283.15 283.15 283.15 283.15 283.15 283.15 283.15
          283.15 283.15 283.15 283.15 283.15 283.15 283.15 283.15 283.15 283.15 283.15 283.15
          283.15 283.15 283.15 283.15 283.15 283.15 283.15 283.15 283.15 283.15 283.15 283.15
          283.15 283.15 283.15 283.15 283.15 283.15 283.15 283.15 283.15 283.15 283.15 283.15
          283.15 283.15 283.15 283.15 283.15 283.15 283.15 283.15 283.15 283.15 283.15 283.15
          283.15 283.15 283.15 283.15 283.15
        </DataArray>
        <DataArray type="Float32" Name="pressure head" NumberOfComponents="1" format="ascii">
          -84.9698 -83.9835 -83.0241 -82.0903 -81.1811 -80.2957 -79.433 -78.5921 -77.7724 -76.9729 -76.1929 -75.4318
          -74.6888 -73.9634 -73.2548 -72.5626 -71.8862 -71.2251 -70.5788 -69.9467 -69.3285 -68.7237 -68.1319 -67.5527
          -66.9857 -66.4306 -65.8871 -65.3548 -64.8334 -64.3225 -63.822 -63.3315 -62.8509 -62.3797 -61.9179 -61.4651
          -61.0212 -60.5859 -60.1591 -59.7405 -59.33 -58.9275 -58.5326 -58.1454 -57.7656 -57.3931 -57.0278 -56.6696
          -56.3182 -55.9737 -55.6358 -55.3046 -54.9799 -54.6615 -54.3495 -54.0438 -53.7443 -53.4508 -53.1635 -52.8821
          -52.6067 -52.3372 -52.0736 -51.8158 -51.5638 -51.3176 -51.0772 -50.8425 -50.6136 -50.3905 -50.1731 -49.9615
          -49.7556 -49.5556 -49.3615 -49.1732 -48.9909 -48.8145 -48.6441 -48.4799 -48.3218 -48.17 -48.0245 -47.8854
          -47.7529 -47.627 -47.5079 -47.3957 -47.2905 -47.1925 -47.1019 -47.0188 -46.9435 -46.876 -46.8167 -46.7658
          -46.7235 -46.69 -46.6657 -46.6509 -46.6459
        </DataArray>
        <DataArray type="Float32" Name="water content" NumberOfComponents="1" format="ascii">
          0.365785 0.366648 0.367495 0.368325 0.36914 0.369939 0.370723 0.371492 0.372247 0.372989 0.373716 0.374431
          0.375133 0.375822 0.3765 0.377165 0.377819 0.378462 0.379093 0.379714 0.380324 0.380924 0.381514 0.382095
          0.382665 0.383226 0.383778 0.384321 0.384855 0.38538 0.385897 0.386406 0.386906 0.387398 0.387882 0.388359
          0.388828 0.389289 0.389743 0.39019 0.390629 0.391062 0.391487 0.391906 0.392317 0.392722 0.393121 0.393512
          0.393898 0.394277 0.394649 0.395015 0.395375 0.395728 0.396076 0.396417 0.396752 0.397081 0.397404 0.397721
          0.398032 0.398337 0.398635 0.398928 0.399215 0.399495 0.39977 0.400038 0.400301 0.400557 0.400807 0.40105
          0.401288 0.401519 0.401743 0.401961 0.402173 0.402377 0.402576 0.402767 0.402951 0.403128 0.403298 0.403461
          0.403616 0.403763 0.403903 0.404035 0.404158 0.404273 0.40438 0.404478 0.404566 0.404646 0.404716 0.404776
          0.404826 0.404865 0.404894 0.404911 0.404917
        </DataArray>
      </PointData>
      <CellData Scalars="process rank">
        <DataArray type="Float32" Name="process rank" NumberOfComponents="1" format="ascii">
          0 0 0 0 0 0 0 0 0 0 0 0
          0 0 0 0 0 0 0 0 0 0 0 0
          0 0 0 0 0 0 0 0 0 0 0 0
          0 0 0 0 0 0 0 0 0 0 0 0
          0 0 0 0 0 0 0 0 0 0 0 0
          0 0 0 0 0 0 0 0 0 0 0 0
          0 0 0 0 0 0 0 0 0 0 0 0
          0 0 0 0 0 0 0 0 0 0 0 0
          0 0 0 0
        </DataArray>
      </CellData>
      <Points>
        <DataArray type="Float32" Name="Coordinates" NumberOfComponents="3" format="ascii">
          0 0 0 -0.01 0 0 -0.02 0 0 -0.03 0 0
          -0.04 0 0 -0.05 0 0 -0.06 0 0 -0.07 0 0
          -0.08 0 0 -0.09 0 0 -0.1 0 0 -0.11 0 0
          -0.12 0 0 -0.13 0 0 -0.14 0 0 -0.15 0 0
          -0.16 0 0 -0.17 0 0 -0.18 0 0 -0.19 0 0
          -0.2 0 0 -0.21 0 0 -0.22 0 0 -0.23 0 0
          -0.24 0 0 -0.25 0 0 -0.26 0 0 -0.27 0 0
          -0.28 0 0 -0.29 0 0 -0.3 0 0 -0.31 0 0
          -0.32 0 0 -0.33 0 0 -0.34 0 0 -0.35 0 0
          -0.36 0 0 -0.37 0 0 -0.38 0 0 -0.39 0 0
          -0.4 0 0 -0.41 0 0 -0.42 0 0 -0.43 0 0
          -0.44 0 0 -0.45 0 0 -0.46 0 0 -0.47 0 0
          -0.48 0 0 -0.49 0 0 -0.5 0 0 -0.51 0 0
          -0.52 0 0 -0.53 0 0 -0.54 0 0 -0.55 0 0
          -0.56 0 0 -0.57 0 0 -0.58 0 0 -0.59 0 0
          -0.6 0 0 -0.61 0 0 -0.62 0 0 -0.63 0 0
          -0.64 0 0 -0.65 0 0 -0.66 0 0 -0.67 0 0
          -0.68 0 0 -0.69 0 0 -0.7 0 0 -0.71 0 0
          -0.72 0 0 -0.73 0 0 -0.74 0 0 -0.75 0 0
          -0.76 0 0 -0.77 0 0 -0.78 0 0 -0.79 0 0
          -0.8 0 0 -0.81 0 0 -0.82 0 0 -0.83 0 0
          -0.84 0 0 -0.85 0 0 -0.86 0 0 -0.87 0 0
          -0.88 0 0 -0.89 0 0 -0.9 0 0 -0.91 0 0
          -0.92 0 0 -0.93 0 0 -0.94 0 0 -0.95 0 0
          -0.96 0 0 -0.97 0 0 -0.98 0 0 -0.99 0 0
          -1 0 0
        </DataArray>
      </Points>
      <Lines>
        <DataArray type="Int32" Name="connectivity" NumberOfComponents="1" format="ascii">
          0 1 1 2 2 3 3 4 4 5 5 6
          6 7 7 8 8 9 9 10 10 11 11 12
          12 13 13 14 14 15 15 16 16 17 17 18
          18 19 19 20 20 21 21 22 22 23 23 24
          24 25 25 26 26 27 27 28 28 29 29 30
          30 31 31 32 32 33 33 34 34 35 35 36
          36 37 37 38 38 39 39 40 40 41 41 42
          42 43 43 44 44 45 45 46 46 47 47 48
          48 49 49 50 50 51 51 52 52 53 53 54
          54 55 55 56 56 57 57 58 58 59 59 60
          60 61 61 62 62 63 63 64 64 65 65 66
          66 67 67 68 68 69 69 70 70 71 71 72
          72 73 73 74 74 75 75 76 76 77 77 78
          78 79 79 80 80 81 81 82 82 83 83 84
          84 85 85 86 86 87 87 88 88 89 89 90
          90 91 91 92 92 93 93 94 94 95 95 96
          96 97 97 98 98 99 99 100
        </DataArray>
        <DataArray type="Int32" Name="offsets" NumberOfComponents="1" format="ascii">
          2 4 6 8 10 12 14 16 18 20 22 24
          26 28 30 32 34 36 38 40 42 44 46 48
          50 52 54 56 58 60 62 64 66 68 70 72
          74 76 78 80 82 84 86 88 90 92 94 96
          98 100 102 104 106 108 110 112 114 116 118 120
          122 124 126 128 130 132 134 136 138 140 142 144
          146 148 150 152 154 156 158 160 162 164 166 168
          170 172 174 176 178 180 182 184 186 188 190 192
          194 196 198 200
        </DataArray>
      </Lines>
    </Piece>
  </PolyData>
</VTKFile>
