<?xml version="1.0"?>
<VTKFile type="PolyData" version="0.1" byte_order="LittleEndian">
  <PolyData>
    <Piece NumberOfLines="100" NumberOfPoints="101">
      <PointData Scalars="Sn">
        <DataArray type="Float32" Name="Sn" NumberOfComponents="1" format="ascii">
          0.563063 0.561821 0.560694 0.559669 0.558738 0.55789 0.557118 0.556414 0.555772 0.555185 0.55465 0.55416
          0.553713 0.553303 0.552928 0.552584 0.552269 0.55198 0.551716 0.551473 0.551251 0.551047 0.55086 0.550689
          0.550532 0.550388 0.550256 0.550135 0.550024 0.549923 0.54983 0.549746 0.549668 0.549597 0.549532 0.549473
          0.549418 0.549369 0.549324 0.549282 0.549245 0.54921 0.549179 0.54915 0.549123 0.549099 0.549077 0.549056
          0.549037 0.549018 0.549001 0.548985 0.548969 0.548954 0.548939 0.548923 0.548907 0.54889 0.548872 0.548853
          0.548831 0.548808 0.548781 0.54875 0.548715 0.548675 0.548628 0.548573 0.54851 0.548437 0.548352 0.548252
          0.548137 0.548003 0.547848 0.547669 0.547462 0.547225 0.546954 0.546646 0.546298 0.545906 0.54547 0.544988
          0.54446 0.54389 0.543283 0.542649 0.542001 0.541359 0.540754 0.540237 0.54 0.54 0.54 0.54
          0.54 0.54 0.54 0.54 0.54
        </DataArray>
        <DataArray type="Float32" Name="Sw" NumberOfComponents="1" format="ascii">
          0.436937 0.438179 0.439306 0.440331 0.441262 0.44211 0.442882 0.443586 0.444228 0.444814 0.44535 0.44584
          0.446287 0.446697 0.447072 0.447416 0.447731 0.448019 0.448284 0.448527 0.448749 0.448953 0.44914 0.449311
          0.449468 0.449612 0.449744 0.449865 0.449976 0.450077 0.45017 0.450255 0.450332 0.450403 0.450468 0.450527
          0.450582 0.450631 0.450676 0.450718 0.450755 0.45079 0.450821 0.45085 0.450877 0.450901 0.450923 0.450944
          0.450963 0.450982 0.450999 0.451015 0.451031 0.451046 0.451061 0.451077 0.451093 0.45111 0.451128 0.451147
          0.451169 0.451192 0.451219 0.45125 0.451285 0.451325 0.451372 0.451427 0.45149 0.451563 0.451648 0.451748
          0.451863 0.451997 0.452152 0.452331 0.452538 0.452775 0.453046 0.453354 0.453702 0.454094 0.45453 0.455012
          0.45554 0.45611 0.456717 0.457351 0.457999 0.458641 0.459246 0.459763 0.46 0.46 0.46 0.46
          0.46 0.46 0.46 0.46 0.46
        </DataArray>
        <DataArray type="Float32" Name="pn" NumberOfComponents="1" format="ascii">
          100000 100000 100000 100000 100000 100000 100000 100000 100000 100000 100000 100000
          100000 100000 100000 100000 100000 100000 100000 100000 100000 100000 100000 100000
          100000 100000 100000 100000 100000 100000 100000 100000 100000 100000 100000 100000
          100000 100000 100000 100000 100000 100000 100000 100000 100000 100000 100000 100000
          100000 100000 100000 100000 100000 100000 100000 100000 100000 100000 100000 100000
          100000 100000 100000 100000 100000 100000 100000 100000 100000 100000 100000 100000
          100000 100000 100000 100000 100000 100000 100000 100000 100000 100000 100000 100000
          100000 100000 100000 100000 100000 100000 100000 100000 100026 100122 100220 100317
          100415 100514 100612 100710 100808
        </DataArray>
        <DataArray type="Float32" Name="pw" NumberOfComponents="1" format="ascii">
          97910.3 98003.9 98089.1 98166.7 98237.6 98302.3 98361.6 98415.8 98465.5 98511 98552.8 98591.2
          98626.5 98658.9 98688.7 98716.1 98741.3 98764.5 98785.8 98805.4 98823.4 98840 98855.3 98869.3
          98882.2 98894 98904.9 98914.9 98924 98932.4 98940.1 98947.2 98953.7 98959.6 98965 98970
          98974.5 98978.7 98982.4 98985.9 98989.1 98992 98994.6 98997.1 98999.3 99001.3 99003.2 99005
          99006.6 99008.1 99009.6 99011 99012.3 99013.6 99014.9 99016.2 99017.6 99019 99020.5 99022.1
          99023.9 99026 99028.2 99030.9 99033.8 99037.3 99041.2 99045.9 99051.2 99057.5 99064.8 99073.3
          99083.2 99094.8 99108.2 99123.8 99141.8 99162.6 99186.5 99214 99245.4 99281.1 99321.5 99366.9
          99417.8 99474.3 99536.7 99604.9 99678.9 99758.6 99843.4 99932.8 100026 100122 100220 100317
          100415 100514 100612 100710 100808
        </DataArray>
        <DataArray type="Float32" Name="pc" NumberOfComponents="1" format="ascii">
          2089.68 1996.12 1910.93 1833.28 1762.41 1697.65 1638.43 1584.2 1534.52 1488.96 1447.16 1408.77
          1373.51 1341.1 1311.31 1283.92 1258.72 1235.54 1214.22 1194.61 1176.57 1159.98 1144.73 1130.7
          1117.81 1105.98 1095.1 1085.12 1075.96 1067.56 1059.85 1052.79 1046.33 1040.41 1034.99 1030.03
          1025.49 1021.35 1017.56 1014.09 1010.92 1008.03 1005.37 1002.94 1000.71 998.663 996.772 995.02
          993.39 991.862 990.419 989.042 987.711 986.408 985.111 983.799 982.446 981.027 979.512 977.867
          976.054 974.031 971.748 969.15 966.17 962.734 958.756 954.135 948.759 942.494 935.192 926.679
          916.761 905.217 891.801 876.236 858.219 837.418 813.476 786.012 754.635 718.945 678.55 633.082
          582.216 525.693 463.341 395.102 321.054 241.432 156.635 67.2387 0 0 0 0
          0 0 0 0 0
        </DataArray>
        <DataArray type="Float32" Name="rhoW" NumberOfComponents="1" format="ascii">
          1000 1000 1000 1000 1000 1000 1000 1000 1000 1000 1000 1000
          1000 1000 1000 1000 1000 1000 1000 1000 1000 1000 1000 1000
          1000 1000 1000 1000 1000 1000 1000 1000 1000 1000 1000 1000
          1000 1000 1000 1000 1000 1000 1000 1000 1000 1000 1000 1000
          1000 1000 1000 1000 1000 1000 1000 1000 1000 1000 1000 1000
          1000 1000 1000 1000 1000 1000 1000 1000 1000 1000 1000 1000
          1000 1000 1000 1000 1000 1000 1000 1000 1000 1000 1000 1000
          1000 1000 1000 1000 1000 1000 1000 1000 1000 1000 1000 1000
          1000 1000 1000 1000 1000
        </DataArray>
        <DataArray type="Float32" Name="rhoN" NumberOfComponents="1" format="ascii">
          1e-10 1e-10 1e-10 1e-10 1e-10 1e-10 1e-10 1e-10 1e-10 1e-10 1e-10 1e-10
          1e-10 1e-10 1e-10 1e-10 1e-10 1e-10 1e-10 1e-10 1e-10 1e-10 1e-10 1e-10
          1e-10 1e-10 1e-10 1e-10 1e-10 1e-10 1e-10 1e-10 1e-10 1e-10 1e-10 1e-10
          1e-10 1e-10 1e-10 1e-10 1e-10 1e-10 1e-10 1e-10 1e-10 1e-10 1e-10 1e-10
          1e-10 1e-10 1e-10 1e-10 1e-10 1e-10 1e-10 1e-10 1e-10 1e-10 1e-10 1e-10
          1e-10 1e-10 1e-10 1e-10 1e-10 1e-10 1e-10 1e-10 1e-10 1e-10 1e-10 1e-10
          1e-10 1e-10 1e-10 1e-10 1e-10 1e-10 1e-10 1e-10 1e-10 1e-10 1e-10 1e-10
          1e-10 1e-10 1e-10 1e-10 1e-10 1e-10 1e-10 1e-10 1e-10 1e-10 1e-10 1e-10
          1e-10 1e-10 1e-10 1e-10 1e-10
        </DataArray>
        <DataArray type="Float32" Name="mobW" NumberOfComponents="1" format="ascii">
          129.475 135.968 142.279 148.395 154.305 159.999 165.473 170.721 175.743 180.538 185.108 189.454
          193.579 197.488 201.187 204.679 207.972 211.072 213.986 216.72 219.282 221.679 223.919 226.009
          227.956 229.768 231.451 233.014 234.462 235.803 237.042 238.188 239.244 240.218 241.115 241.94
          242.699 243.395 244.035 244.622 245.161 245.656 246.11 246.527 246.91 247.264 247.591 247.895
          248.178 248.443 248.695 248.935 249.167 249.395 249.622 249.853 250.09 250.34 250.607 250.898
          251.218 251.577 251.983 252.446 252.979 253.595 254.312 255.149 256.128 257.276 258.626 260.213
          262.083 264.286 266.885 269.952 273.576 277.861 282.932 288.943 296.079 304.571 314.704 326.844
          341.464 359.195 380.919 407.925 442.258 487.544 551.548 658.861 1000 1000 1000 1000
          1000 1000 1000 1000 1000
        </DataArray>
        <DataArray type="Float32" Name="mobN" NumberOfComponents="1" format="ascii">
          1e+10 1e+10 1e+10 1e+10 1e+10 1e+10 1e+10 1e+10 1e+10 1e+10 1e+10 1e+10
          1e+10 1e+10 1e+10 1e+10 1e+10 1e+10 1e+10 1e+10 1e+10 1e+10 1e+10 1e+10
          1e+10 1e+10 1e+10 1e+10 1e+10 1e+10 1e+10 1e+10 1e+10 1e+10 1e+10 1e+10
          1e+10 1e+10 1e+10 1e+10 1e+10 1e+10 1e+10 1e+10 1e+10 1e+10 1e+10 1e+10
          1e+10 1e+10 1e+10 1e+10 1e+10 1e+10 1e+10 1e+10 1e+10 1e+10 1e+10 1e+10
          1e+10 1e+10 1e+10 1e+10 1e+10 1e+10 1e+10 1e+10 1e+10 1e+10 1e+10 1e+10
          1e+10 1e+10 1e+10 1e+10 1e+10 1e+10 1e+10 1e+10 1e+10 1e+10 1e+10 1e+10
          1e+10 1e+10 1e+10 1e+10 1e+10 1e+10 1e+10 1e+10 1e+10 1e+10 1e+10 1e+10
          1e+10 1e+10 1e+10 1e+10 1e+10
        </DataArray>
        <DataArray type="Float32" Name="porosity" NumberOfComponents="1" format="ascii">
          1 1 1 1 1 1 1 1 1 1 1 1
          1 1 1 1 1 1 1 1 1 1 1 1
          1 1 1 1 1 1 1 1 1 1 1 1
          1 1 1 1 1 1 1 1 1 1 1 1
          1 1 1 1 1 1 1 1 1 1 1 1
          1 1 1 1 1 1 1 1 1 1 1 1
          1 1 1 1 1 1 1 1 1 1 1 1
          1 1 1 1 1 1 1 1 1 1 1 1
          1 1 1 1 1
        </DataArray>
        <DataArray type="Float32" Name="temperature" NumberOfComponents="1" format="ascii">
          283.15 283.15 283.15 283.15 283.15 283.15 283.15 283.15 283.15 283.15 283.15 283.15
          283.15 283.15 283.15 283.15 283.15 283.15 283.15 283.15 283.15 283.15 283.15 283.15
          283.15 283.15 283.15 283.15 283.15 283.15 283.15 283.15 283.15 283.15 283.15 283.15
          283.15 283.15 283.15 283.15 283.15 283.15 283.15 283.15 283.15 283.15 283.15 283.15
          283.15 283.15 283.15 283.15 283.15 283.15 283.15 283.15 283.15 283.15 283.15 283.15
          283.15 283.15 283.15 283.15 283.15 283.15 283.15 283.15 283.15 283.15 283.15 283.15
          283.15 283.15 283.15 283.15 283.15 283.15 283.15 283.15 283.15 283.15 283.15 283.15
          283.15 283.15 283.15 283.15 283.15 283.15 283.15 283.15 283.15 283.15 283.15 283.15
          283.15 283.15 283.15 283.15 283.15
        </DataArray>
        <DataArray type="Float32" Name="pressure head" NumberOfComponents="1" format="ascii">
          -21.3015 -20.3478 -19.4795 -18.6879 -17.9654 -17.3053 -16.7016 -16.1489 -15.6424 -15.178 -14.7518 -14.3606
          -14.0011 -13.6708 -13.3671 -13.0878 -12.831 -12.5947 -12.3774 -12.1775 -11.9936 -11.8245 -11.669 -11.526
          -11.3946 -11.274 -11.1631 -11.0614 -10.968 -10.8823 -10.8038 -10.7318 -10.6659 -10.6056 -10.5503 -10.4998
          -10.4535 -10.4113 -10.3726 -10.3373 -10.305 -10.2755 -10.2485 -10.2237 -10.201 -10.1801 -10.1608 -10.1429
          -10.1263 -10.1107 -10.096 -10.082 -10.0684 -10.0551 -10.0419 -10.0285 -10.0147 -10.0003 -9.98483 -9.96806
          -9.94958 -9.92896 -9.90569 -9.8792 -9.84883 -9.8138 -9.77325 -9.72615 -9.67134 -9.60749 -9.53304 -9.44627
          -9.34516 -9.22749 -9.09073 -8.93207 -8.74841 -8.53637 -8.29231 -8.01236 -7.69251 -7.32869 -6.91692 -6.45343
          -5.93493 -5.35875 -4.72315 -4.02754 -3.27273 -2.46108 -1.59669 -0.68541 0.265276 1.24667 2.23795 3.23525
          4.23513 5.23513 6.23513 7.23513 8.23513
        </DataArray>
        <DataArray type="Float32" Name="water content" NumberOfComponents="1" format="ascii">
          0.436937 0.438179 0.439306 0.440331 0.441262 0.44211 0.442882 0.443586 0.444228 0.444814 0.44535 0.44584
          0.446287 0.446697 0.447072 0.447416 0.447731 0.448019 0.448284 0.448527 0.448749 0.448953 0.44914 0.449311
          0.449468 0.449612 0.449744 0.449865 0.449976 0.450077 0.45017 0.450255 0.450332 0.450403 0.450468 0.450527
          0.450582 0.450631 0.450676 0.450718 0.450755 0.45079 0.450821 0.45085 0.450877 0.450901 0.450923 0.450944
          0.450963 0.450982 0.450999 0.451015 0.451031 0.451046 0.451061 0.451077 0.451093 0.45111 0.451128 0.451147
          0.451169 0.451192 0.451219 0.45125 0.451285 0.451325 0.451372 0.451427 0.45149 0.451563 0.451648 0.451748
          0.451863 0.451997 0.452152 0.452331 0.452538 0.452775 0.453046 0.453354 0.453702 0.454094 0.45453 0.455012
          0.45554 0.45611 0.456717 0.457351 0.457999 0.458641 0.459246 0.459763 0.46 0.46 0.46 0.46
          0.46 0.46 0.46 0.46 0.46
        </DataArray>
      </PointData>
      <CellData Scalars="process rank">
        <DataArray type="Float32" Name="process rank" NumberOfComponents="1" format="ascii">
          0 0 0 0 0 0 0 0 0 0 0 0
          0 0 0 0 0 0 0 0 0 0 0 0
          0 0 0 0 0 0 0 0 0 0 0 0
          0 0 0 0 0 0 0 0 0 0 0 0
          0 0 0 0 0 0 0 0 0 0 0 0
          0 0 0 0 0 0 0 0 0 0 0 0
          0 0 0 0 0 0 0 0 0 0 0 0
          0 0 0 0 0 0 0 0 0 0 0 0
          0 0 0 0
        </DataArray>
      </CellData>
      <Points>
        <DataArray type="Float32" Name="Coordinates" NumberOfComponents="3" format="ascii">
          0 0 0 -0.01 0 0 -0.02 0 0 -0.03 0 0
          -0.04 0 0 -0.05 0 0 -0.06 0 0 -0.07 0 0
          -0.08 0 0 -0.09 0 0 -0.1 0 0 -0.11 0 0
          -0.12 0 0 -0.13 0 0 -0.14 0 0 -0.15 0 0
          -0.16 0 0 -0.17 0 0 -0.18 0 0 -0.19 0 0
          -0.2 0 0 -0.21 0 0 -0.22 0 0 -0.23 0 0
          -0.24 0 0 -0.25 0 0 -0.26 0 0 -0.27 0 0
          -0.28 0 0 -0.29 0 0 -0.3 0 0 -0.31 0 0
          -0.32 0 0 -0.33 0 0 -0.34 0 0 -0.35 0 0
          -0.36 0 0 -0.37 0 0 -0.38 0 0 -0.39 0 0
          -0.4 0 0 -0.41 0 0 -0.42 0 0 -0.43 0 0
          -0.44 0 0 -0.45 0 0 -0.46 0 0 -0.47 0 0
          -0.48 0 0 -0.49 0 0 -0.5 0 0 -0.51 0 0
          -0.52 0 0 -0.53 0 0 -0.54 0 0 -0.55 0 0
          -0.56 0 0 -0.57 0 0 -0.58 0 0 -0.59 0 0
          -0.6 0 0 -0.61 0 0 -0.62 0 0 -0.63 0 0
          -0.64 0 0 -0.65 0 0 -0.66 0 0 -0.67 0 0
          -0.68 0 0 -0.69 0 0 -0.7 0 0 -0.71 0 0
          -0.72 0 0 -0.73 0 0 -0.74 0 0 -0.75 0 0
          -0.76 0 0 -0.77 0 0 -0.78 0 0 -0.79 0 0
          -0.8 0 0 -0.81 0 0 -0.82 0 0 -0.83 0 0
          -0.84 0 0 -0.85 0 0 -0.86 0 0 -0.87 0 0
          -0.88 0 0 -0.89 0 0 -0.9 0 0 -0.91 0 0
          -0.92 0 0 -0.93 0 0 -0.94 0 0 -0.95 0 0
          -0.96 0 0 -0.97 0 0 -0.98 0 0 -0.99 0 0
          -1 0 0
        </DataArray>
      </Points>
      <Lines>
        <DataArray type="Int32" Name="connectivity" NumberOfComponents="1" format="ascii">
          0 1 1 2 2 3 3 4 4 5 5 6
          6 7 7 8 8 9 9 10 10 11 11 12
          12 13 13 14 14 15 15 16 16 17 17 18
          18 19 19 20 20 21 21 22 22 23 23 24
          24 25 25 26 26 27 27 28 28 29 29 30
          30 31 31 32 32 33 33 34 34 35 35 36
          36 37 37 38 38 39 39 40 40 41 41 42
          42 43 43 44 44 45 45 46 46 47 47 48
          48 49 49 50 50 51 51 52 52 53 53 54
          54 55 55 56 56 57 57 58 58 59 59 60
          60 61 61 62 62 63 63 64 64 65 65 66
          66 67 67 68 68 69 69 70 70 71 71 72
          72 73 73 74 74 75 75 76 76 77 77 78
          78 79 79 80 80 81 81 82 82 83 83 84
          84 85 85 86 86 87 87 88 88 89 89 90
          90 91 91 92 92 93 93 94 94 95 95 96
          96 97 97 98 98 99 99 100
        </DataArray>
        <DataArray type="Int32" Name="offsets" NumberOfComponents="1" format="ascii">
          2 4 6 8 10 12 14 16 18 20 22 24
          26 28 30 32 34 36 38 40 42 44 46 48
          50 52 54 56 58 60 62 64 66 68 70 72
          74 76 78 80 82 84 86 88 90 92 94 96
          98 100 102 104 106 108 110 112 114 116 118 120
          122 124 126 128 130 132 134 136 138 140 142 144
          146 148 150 152 154 156 158 160 162 164 166 168
          170 172 174 176 178 180 182 184 186 188 190 192
          194 196 198 200
        </DataArray>
      </Lines>
    </Piece>
  </PolyData>
</VTKFile>
