<?xml version="1.0"?>
<VTKFile type="PolyData" version="0.1" byte_order="LittleEndian">
  <PolyData>
    <Piece NumberOfLines="100" NumberOfPoints="101">
      <PointData Scalars="Sn">
        <DataArray type="Float32" Name="Sn" NumberOfComponents="1" format="ascii">
          0.575911 0.574659 0.573476 0.572357 0.571298 0.570294 0.569342 0.568439 0.56758 0.566763 0.565985 0.565244
          0.564536 0.563859 0.563211 0.56259 0.561994 0.56142 0.560867 0.560332 0.559813 0.559309 0.558818 0.558337
          0.557865 0.557398 0.556936 0.556476 0.556015 0.555551 0.555082 0.554604 0.554115 0.553612 0.553092 0.552553
          0.551991 0.551404 0.550791 0.550147 0.549474 0.548769 0.548034 0.547269 0.546478 0.545665 0.544837 0.544003
          0.543174 0.542366 0.541598 0.540899 0.540313 0.54 0.54 0.54 0.54 0.54 0.54 0.54
          0.54 0.54 0.54 0.54 0.54 0.54 0.54 0.54 0.54 0.54 0.54 0.54
          0.54 0.54 0.54 0.54 0.54 0.54 0.54 0.54 0.54 0.54 0.54 0.54
          0.54 0.54 0.54 0.54 0.54 0.54 0.54 0.54 0.54 0.54 0.54 0.54
          0.54 0.54 0.54 0.54 0.54
        </DataArray>
        <DataArray type="Float32" Name="Sw" NumberOfComponents="1" format="ascii">
          0.424089 0.425341 0.426524 0.427643 0.428702 0.429706 0.430658 0.431561 0.43242 0.433237 0.434015 0.434756
          0.435464 0.436141 0.436789 0.43741 0.438006 0.43858 0.439133 0.439668 0.440187 0.440691 0.441182 0.441663
          0.442135 0.442602 0.443064 0.443524 0.443985 0.444449 0.444918 0.445396 0.445885 0.446388 0.446908 0.447447
          0.448009 0.448596 0.449209 0.449853 0.450526 0.451231 0.451966 0.452731 0.453522 0.454335 0.455163 0.455997
          0.456826 0.457634 0.458402 0.459101 0.459687 0.46 0.46 0.46 0.46 0.46 0.46 0.46
          0.46 0.46 0.46 0.46 0.46 0.46 0.46 0.46 0.46 0.46 0.46 0.46
          0.46 0.46 0.46 0.46 0.46 0.46 0.46 0.46 0.46 0.46 0.46 0.46
          0.46 0.46 0.46 0.46 0.46 0.46 0.46 0.46 0.46 0.46 0.46 0.46
          0.46 0.46 0.46 0.46 0.46
        </DataArray>
        <DataArray type="Float32" Name="pn" NumberOfComponents="1" format="ascii">
          100000 100000 100000 100000 100000 100000 100000 100000 100000 100000 100000 100000
          100000 100000 100000 100000 100000 100000 100000 100000 100000 100000 100000 100000
          100000 100000 100000 100000 100000 100000 100000 100000 100000 100000 100000 100000
          100000 100000 100000 100000 100000 100000 100000 100000 100000 100000 100000 100000
          100000 100000 100000 100000 100000 100015 100113 100211 100309 100407 100505 100603
          100702 100800 100898 100996 101094 101192 101290 101388 101486 101584 101683 101781
          101879 101977 102075 102173 102271 102369 102467 102565 102664 102762 102860 102958
          103056 103154 103252 103350 103448 103546 103645 103743 103841 103939 104037 104135
          104233 104331 104429 104527 104626
        </DataArray>
        <DataArray type="Float32" Name="pw" NumberOfComponents="1" format="ascii">
          96942.3 97037.5 97127.1 97211.7 97291.6 97367.1 97438.7 97506.6 97571 97632.4 97690.7 97746.4
          97799.6 97850.4 97899.1 97945.9 97990.8 98034.1 98076 98116.5 98155.8 98194.1 98231.5 98268.2
          98304.3 98340 98375.5 98411 98446.6 98482.6 98519.1 98556.5 98594.8 98634.4 98675.6 98718.6
          98763.6 98811 98861 98913.9 98969.9 99029.2 99092.1 99158.7 99229.1 99303.3 99381.3 99463
          99548.2 99636.6 99727.9 99821.8 99917.6 100015 100113 100211 100309 100407 100505 100603
          100702 100800 100898 100996 101094 101192 101290 101388 101486 101584 101683 101781
          101879 101977 102075 102173 102271 102369 102467 102565 102664 102762 102860 102958
          103056 103154 103252 103350 103448 103546 103645 103743 103841 103939 104037 104135
          104233 104331 104429 104527 104626
        </DataArray>
        <DataArray type="Float32" Name="pc" NumberOfComponents="1" format="ascii">
          3057.71 2962.55 2872.9 2788.33 2708.44 2632.88 2561.3 2493.42 2428.95 2367.65 2309.27 2253.6
          2200.44 2149.59 2100.88 2054.12 2009.17 1965.86 1924.03 1883.53 1844.22 1805.94 1768.53 1731.84
          1695.72 1659.99 1624.48 1589.01 1553.39 1517.42 1480.88 1443.55 1405.19 1365.56 1324.39 1281.43
          1236.39 1189.01 1139.02 1086.14 1030.13 970.772 907.87 841.278 770.897 696.691 618.693 537.008
          451.821 363.391 272.058 178.232 82.3931 0 0 0 0 0 0 0
          0 0 0 0 0 0 0 0 0 0 0 0
          0 0 0 0 0 0 0 0 0 0 0 0
          0 0 0 0 0 0 0 0 0 0 0 0
          0 0 0 0 0
        </DataArray>
        <DataArray type="Float32" Name="rhoW" NumberOfComponents="1" format="ascii">
          1000 1000 1000 1000 1000 1000 1000 1000 1000 1000 1000 1000
          1000 1000 1000 1000 1000 1000 1000 1000 1000 1000 1000 1000
          1000 1000 1000 1000 1000 1000 1000 1000 1000 1000 1000 1000
          1000 1000 1000 1000 1000 1000 1000 1000 1000 1000 1000 1000
          1000 1000 1000 1000 1000 1000 1000 1000 1000 1000 1000 1000
          1000 1000 1000 1000 1000 1000 1000 1000 1000 1000 1000 1000
          1000 1000 1000 1000 1000 1000 1000 1000 1000 1000 1000 1000
          1000 1000 1000 1000 1000 1000 1000 1000 1000 1000 1000 1000
          1000 1000 1000 1000 1000
        </DataArray>
        <DataArray type="Float32" Name="rhoN" NumberOfComponents="1" format="ascii">
          1e-10 1e-10 1e-10 1e-10 1e-10 1e-10 1e-10 1e-10 1e-10 1e-10 1e-10 1e-10
          1e-10 1e-10 1e-10 1e-10 1e-10 1e-10 1e-10 1e-10 1e-10 1e-10 1e-10 1e-10
          1e-10 1e-10 1e-10 1e-10 1e-10 1e-10 1e-10 1e-10 1e-10 1e-10 1e-10 1e-10
          1e-10 1e-10 1e-10 1e-10 1e-10 1e-10 1e-10 1e-10 1e-10 1e-10 1e-10 1e-10
          1e-10 1e-10 1e-10 1e-10 1e-10 1e-10 1e-10 1e-10 1e-10 1e-10 1e-10 1e-10
          1e-10 1e-10 1e-10 1e-10 1e-10 1e-10 1e-10 1e-10 1e-10 1e-10 1e-10 1e-10
          1e-10 1e-10 1e-10 1e-10 1e-10 1e-10 1e-10 1e-10 1e-10 1e-10 1e-10 1e-10
          1e-10 1e-10 1e-10 1e-10 1e-10 1e-10 1e-10 1e-10 1e-10 1e-10 1e-10 1e-10
          1e-10 1e-10 1e-10 1e-10 1e-10
        </DataArray>
        <DataArray type="Float32" Name="mobW" NumberOfComponents="1" format="ascii">
          81.66 85.178 88.6799 92.1624 95.6228 99.0589 102.469 105.851 109.205 112.529 115.824 119.091
          122.329 125.54 128.726 131.89 135.035 138.164 141.283 144.396 147.512 150.637 153.781 156.956
          160.174 163.449 166.8 170.246 173.811 177.522 181.409 185.51 189.867 194.528 199.55 205.001
          210.957 217.51 224.766 232.854 241.923 252.157 263.777 277.057 292.344 310.082 330.863 355.508
          385.219 421.89 468.851 533.071 635.22 1000 1000 1000 1000 1000 1000 1000
          1000 1000 1000 1000 1000 1000 1000 1000 1000 1000 1000 1000
          1000 1000 1000 1000 1000 1000 1000 1000 1000 1000 1000 1000
          1000 1000 1000 1000 1000 1000 1000 1000 1000 1000 1000 1000
          1000 1000 1000 1000 1000
        </DataArray>
        <DataArray type="Float32" Name="mobN" NumberOfComponents="1" format="ascii">
          1e+10 1e+10 1e+10 1e+10 1e+10 1e+10 1e+10 1e+10 1e+10 1e+10 1e+10 1e+10
          1e+10 1e+10 1e+10 1e+10 1e+10 1e+10 1e+10 1e+10 1e+10 1e+10 1e+10 1e+10
          1e+10 1e+10 1e+10 1e+10 1e+10 1e+10 1e+10 1e+10 1e+10 1e+10 1e+10 1e+10
          1e+10 1e+10 1e+10 1e+10 1e+10 1e+10 1e+10 1e+10 1e+10 1e+10 1e+10 1e+10
          1e+10 1e+10 1e+10 1e+10 1e+10 1e+10 1e+10 1e+10 1e+10 1e+10 1e+10 1e+10
          1e+10 1e+10 1e+10 1e+10 1e+10 1e+10 1e+10 1e+10 1e+10 1e+10 1e+10 1e+10
          1e+10 1e+10 1e+10 1e+10 1e+10 1e+10 1e+10 1e+10 1e+10 1e+10 1e+10 1e+10
          1e+10 1e+10 1e+10 1e+10 1e+10 1e+10 1e+10 1e+10 1e+10 1e+10 1e+10 1e+10
          1e+10 1e+10 1e+10 1e+10 1e+10
        </DataArray>
        <DataArray type="Float32" Name="porosity" NumberOfComponents="1" format="ascii">
          1 1 1 1 1 1 1 1 1 1 1 1
          1 1 1 1 1 1 1 1 1 1 1 1
          1 1 1 1 1 1 1 1 1 1 1 1
          1 1 1 1 1 1 1 1 1 1 1 1
          1 1 1 1 1 1 1 1 1 1 1 1
          1 1 1 1 1 1 1 1 1 1 1 1
          1 1 1 1 1 1 1 1 1 1 1 1
          1 1 1 1 1 1 1 1 1 1 1 1
          1 1 1 1 1
        </DataArray>
        <DataArray type="Float32" Name="temperature" NumberOfComponents="1" format="ascii">
          283.15 283.15 283.15 283.15 283.15 283.15 283.15 283.15 283.15 283.15 283.15 283.15
          283.15 283.15 283.15 283.15 283.15 283.15 283.15 283.15 283.15 283.15 283.15 283.15
          283.15 283.15 283.15 283.15 283.15 283.15 283.15 283.15 283.15 283.15 283.15 283.15
          283.15 283.15 283.15 283.15 283.15 283.15 283.15 283.15 283.15 283.15 283.15 283.15
          283.15 283.15 283.15 283.15 283.15 283.15 283.15 283.15 283.15 283.15 283.15 283.15
          283.15 283.15 283.15 283.15 283.15 283.15 283.15 283.15 283.15 283.15 283.15 283.15
          283.15 283.15 283.15 283.15 283.15 283.15 283.15 283.15 283.15 283.15 283.15 283.15
          283.15 283.15 283.15 283.15 283.15 283.15 283.15 283.15 283.15 283.15 283.15 283.15
          283.15 283.15 283.15 283.15 283.15
        </DataArray>
        <DataArray type="Float32" Name="pressure head" NumberOfComponents="1" format="ascii">
          -31.1694 -30.1993 -29.2854 -28.4234 -27.609 -26.8387 -26.1091 -25.4171 -24.76 -24.135 -23.54 -22.9725
          -22.4306 -21.9122 -21.4157 -20.9391 -20.4809 -20.0393 -19.6129 -19.2001 -18.7994 -18.4091 -18.0278 -17.6539
          -17.2856 -16.9214 -16.5594 -16.1979 -15.8348 -15.4681 -15.0956 -14.7151 -14.3241 -13.9201 -13.5004 -13.0625
          -12.6034 -12.1204 -11.6108 -11.0717 -10.5008 -9.89574 -9.25454 -8.57572 -7.85827 -7.10185 -6.30676 -5.47409
          -4.60571 -3.70429 -2.77327 -1.81684 -0.839889 0.151929 1.15126 2.15126 3.15126 4.15126 5.15126 6.15126
          7.15126 8.15126 9.15126 10.1513 11.1513 12.1513 13.1513 14.1513 15.1513 16.1513 17.1513 18.1513
          19.1513 20.1513 21.1513 22.1513 23.1513 24.1513 25.1513 26.1513 27.1513 28.1513 29.1513 30.1513
          31.1513 32.1513 33.1513 34.1513 35.1513 36.1513 37.1513 38.1513 39.1513 40.1513 41.1513 42.1513
          43.1513 44.1513 45.1513 46.1513 47.1513
        </DataArray>
        <DataArray type="Float32" Name="water content" NumberOfComponents="1" format="ascii">
          0.424089 0.425341 0.426524 0.427643 0.428702 0.429706 0.430658 0.431561 0.43242 0.433237 0.434015 0.434756
          0.435464 0.436141 0.436789 0.43741 0.438006 0.43858 0.439133 0.439668 0.440187 0.440691 0.441182 0.441663
          0.442135 0.442602 0.443064 0.443524 0.443985 0.444449 0.444918 0.445396 0.445885 0.446388 0.446908 0.447447
          0.448009 0.448596 0.449209 0.449853 0.450526 0.451231 0.451966 0.452731 0.453522 0.454335 0.455163 0.455997
          0.456826 0.457634 0.458402 0.459101 0.459687 0.46 0.46 0.46 0.46 0.46 0.46 0.46
          0.46 0.46 0.46 0.46 0.46 0.46 0.46 0.46 0.46 0.46 0.46 0.46
          0.46 0.46 0.46 0.46 0.46 0.46 0.46 0.46 0.46 0.46 0.46 0.46
          0.46 0.46 0.46 0.46 0.46 0.46 0.46 0.46 0.46 0.46 0.46 0.46
          0.46 0.46 0.46 0.46 0.46
        </DataArray>
      </PointData>
      <CellData Scalars="process rank">
        <DataArray type="Float32" Name="process rank" NumberOfComponents="1" format="ascii">
          0 0 0 0 0 0 0 0 0 0 0 0
          0 0 0 0 0 0 0 0 0 0 0 0
          0 0 0 0 0 0 0 0 0 0 0 0
          0 0 0 0 0 0 0 0 0 0 0 0
          0 0 0 0 0 0 0 0 0 0 0 0
          0 0 0 0 0 0 0 0 0 0 0 0
          0 0 0 0 0 0 0 0 0 0 0 0
          0 0 0 0 0 0 0 0 0 0 0 0
          0 0 0 0
        </DataArray>
      </CellData>
      <Points>
        <DataArray type="Float32" Name="Coordinates" NumberOfComponents="3" format="ascii">
          0 0 0 -0.01 0 0 -0.02 0 0 -0.03 0 0
          -0.04 0 0 -0.05 0 0 -0.06 0 0 -0.07 0 0
          -0.08 0 0 -0.09 0 0 -0.1 0 0 -0.11 0 0
          -0.12 0 0 -0.13 0 0 -0.14 0 0 -0.15 0 0
          -0.16 0 0 -0.17 0 0 -0.18 0 0 -0.19 0 0
          -0.2 0 0 -0.21 0 0 -0.22 0 0 -0.23 0 0
          -0.24 0 0 -0.25 0 0 -0.26 0 0 -0.27 0 0
          -0.28 0 0 -0.29 0 0 -0.3 0 0 -0.31 0 0
          -0.32 0 0 -0.33 0 0 -0.34 0 0 -0.35 0 0
          -0.36 0 0 -0.37 0 0 -0.38 0 0 -0.39 0 0
          -0.4 0 0 -0.41 0 0 -0.42 0 0 -0.43 0 0
          -0.44 0 0 -0.45 0 0 -0.46 0 0 -0.47 0 0
          -0.48 0 0 -0.49 0 0 -0.5 0 0 -0.51 0 0
          -0.52 0 0 -0.53 0 0 -0.54 0 0 -0.55 0 0
          -0.56 0 0 -0.57 0 0 -0.58 0 0 -0.59 0 0
          -0.6 0 0 -0.61 0 0 -0.62 0 0 -0.63 0 0
          -0.64 0 0 -0.65 0 0 -0.66 0 0 -0.67 0 0
          -0.68 0 0 -0.69 0 0 -0.7 0 0 -0.71 0 0
          -0.72 0 0 -0.73 0 0 -0.74 0 0 -0.75 0 0
          -0.76 0 0 -0.77 0 0 -0.78 0 0 -0.79 0 0
          -0.8 0 0 -0.81 0 0 -0.82 0 0 -0.83 0 0
          -0.84 0 0 -0.85 0 0 -0.86 0 0 -0.87 0 0
          -0.88 0 0 -0.89 0 0 -0.9 0 0 -0.91 0 0
          -0.92 0 0 -0.93 0 0 -0.94 0 0 -0.95 0 0
          -0.96 0 0 -0.97 0 0 -0.98 0 0 -0.99 0 0
          -1 0 0
        </DataArray>
      </Points>
      <Lines>
        <DataArray type="Int32" Name="connectivity" NumberOfComponents="1" format="ascii">
          0 1 1 2 2 3 3 4 4 5 5 6
          6 7 7 8 8 9 9 10 10 11 11 12
          12 13 13 14 14 15 15 16 16 17 17 18
          18 19 19 20 20 21 21 22 22 23 23 24
          24 25 25 26 26 27 27 28 28 29 29 30
          30 31 31 32 32 33 33 34 34 35 35 36
          36 37 37 38 38 39 39 40 40 41 41 42
          42 43 43 44 44 45 45 46 46 47 47 48
          48 49 49 50 50 51 51 52 52 53 53 54
          54 55 55 56 56 57 57 58 58 59 59 60
          60 61 61 62 62 63 63 64 64 65 65 66
          66 67 67 68 68 69 69 70 70 71 71 72
          72 73 73 74 74 75 75 76 76 77 77 78
          78 79 79 80 80 81 81 82 82 83 83 84
          84 85 85 86 86 87 87 88 88 89 89 90
          90 91 91 92 92 93 93 94 94 95 95 96
          96 97 97 98 98 99 99 100
        </DataArray>
        <DataArray type="Int32" Name="offsets" NumberOfComponents="1" format="ascii">
          2 4 6 8 10 12 14 16 18 20 22 24
          26 28 30 32 34 36 38 40 42 44 46 48
          50 52 54 56 58 60 62 64 66 68 70 72
          74 76 78 80 82 84 86 88 90 92 94 96
          98 100 102 104 106 108 110 112 114 116 118 120
          122 124 126 128 130 132 134 136 138 140 142 144
          146 148 150 152 154 156 158 160 162 164 166 168
          170 172 174 176 178 180 182 184 186 188 190 192
          194 196 198 200
        </DataArray>
      </Lines>
    </Piece>
  </PolyData>
</VTKFile>
