<?xml version="1.0"?>
<VTKFile type="PolyData" version="0.1" byte_order="LittleEndian">
  <PolyData>
    <Piece NumberOfLines="200" NumberOfPoints="201">
      <PointData Scalars="Sn">
        <DataArray type="Float32" Name="Sn" NumberOfComponents="1" format="ascii">
          0.698446 0.698075 0.697684 0.697271 0.696834 0.696373 0.695886 0.695372 0.69483 0.694258 0.693655 0.693019
          0.692349 0.691644 0.6909 0.690118 0.689294 0.688428 0.687517 0.686559 0.685553 0.684496 0.683387 0.682223
          0.681003 0.679723 0.678384 0.676981 0.675513 0.673978 0.672373 0.670698 0.668949 0.667124 0.665223 0.663243
          0.661182 0.659038 0.656811 0.654499 0.652102 0.649617 0.647045 0.644387 0.641641 0.638808 0.635891 0.632891
          0.62981 0.626653 0.899963 0.899963 0.899963 0.899963 0.899963 0.899963 0.899963 0.899963 0.899963 0.899963
          0.899963 0.899963 0.899963 0.899963 0.899963 0.899963 0.899963 0.899963 0.899963 0.899963 0.899963 0.899963
          0.899963 0.899963 0.899963 0.899963 0.899963 0.899963 0.899963 0.899963 0.899963 0.899963 0.899963 0.899963
          0.899963 0.899963 0.899963 0.899963 0.899963 0.899963 0.899963 0.899963 0.899963 0.899963 0.899963 0.899963
          0.899963 0.899963 0.899963 0.899963 0.899963 0.899963 0.899963 0.899963 0.899963 0.899963 0.899963 0.899963
          0.899963 0.899963 0.899963 0.899963 0.899963 0.899963 0.899963 0.899963 0.899963 0.899963 0.899963 0.899963
          0.899963 0.899963 0.899963 0.899963 0.899963 0.899963 0.899963 0.899963 0.899963 0.899963 0.899963 0.899963
          0.899963 0.899963 0.899963 0.899963 0.899963 0.899963 0.899963 0.899963 0.899963 0.899963 0.899963 0.899963
          0.899963 0.899963 0.899963 0.899963 0.899963 0.899963 0.899963 0.899963 0.899963 0.899963 0.899963 0.899963
          0.899963 0.899963 0.899963 0.899963 0.899963 0.899963 0.899963 0.899963 0.899963 0.899963 0.899963 0.899963
          0.899963 0.899963 0.899963 0.899963 0.899963 0.899963 0.899963 0.899963 0.899963 0.899963 0.899963 0.899963
          0.899963 0.899963 0.899963 0.899963 0.899963 0.899963 0.899963 0.899963 0.899963 0.899963 0.899963 0.899963
          0.899963 0.899963 0.899963 0.899963 0.899963 0.899963 0.899963 0.899963 0.899963
        </DataArray>
        <DataArray type="Float32" Name="Sw" NumberOfComponents="1" format="ascii">
          0.301554 0.301925 0.302316 0.302729 0.303166 0.303627 0.304114 0.304628 0.30517 0.305742 0.306345 0.306981
          0.307651 0.308356 0.3091 0.309882 0.310706 0.311572 0.312483 0.313441 0.314447 0.315504 0.316613 0.317777
          0.318997 0.320277 0.321616 0.323019 0.324487 0.326022 0.327627 0.329302 0.331051 0.332876 0.334777 0.336757
          0.338818 0.340962 0.343189 0.345501 0.347898 0.350383 0.352955 0.355613 0.358359 0.361192 0.364109 0.367109
          0.37019 0.373347 0.100037 0.100037 0.100037 0.100037 0.100037 0.100037 0.100037 0.100037 0.100037 0.100037
          0.100037 0.100037 0.100037 0.100037 0.100037 0.100037 0.100037 0.100037 0.100037 0.100037 0.100037 0.100037
          0.100037 0.100037 0.100037 0.100037 0.100037 0.100037 0.100037 0.100037 0.100037 0.100037 0.100037 0.100037
          0.100037 0.100037 0.100037 0.100037 0.100037 0.100037 0.100037 0.100037 0.100037 0.100037 0.100037 0.100037
          0.100037 0.100037 0.100037 0.100037 0.100037 0.100037 0.100037 0.100037 0.100037 0.100037 0.100037 0.100037
          0.100037 0.100037 0.100037 0.100037 0.100037 0.100037 0.100037 0.100037 0.100037 0.100037 0.100037 0.100037
          0.100037 0.100037 0.100037 0.100037 0.100037 0.100037 0.100037 0.100037 0.100037 0.100037 0.100037 0.100037
          0.100037 0.100037 0.100037 0.100037 0.100037 0.100037 0.100037 0.100037 0.100037 0.100037 0.100037 0.100037
          0.100037 0.100037 0.100037 0.100037 0.100037 0.100037 0.100037 0.100037 0.100037 0.100037 0.100037 0.100037
          0.100037 0.100037 0.100037 0.100037 0.100037 0.100037 0.100037 0.100037 0.100037 0.100037 0.100037 0.100037
          0.100037 0.100037 0.100037 0.100037 0.100037 0.100037 0.100037 0.100037 0.100037 0.100037 0.100037 0.100037
          0.100037 0.100037 0.100037 0.100037 0.100037 0.100037 0.100037 0.100037 0.100037 0.100037 0.100037 0.100037
          0.100037 0.100037 0.100037 0.100037 0.100037 0.100037 0.100037 0.100037 0.100037
        </DataArray>
        <DataArray type="Float32" Name="pn" NumberOfComponents="1" format="ascii">
          100000 100000 100000 100000 100000 100000 100000 100000 100000 100000 100000 100000
          100000 100000 100000 100000 100000 100000 100000 100000 100000 100000 100000 100000
          100000 100000 100000 100000 100000 100000 100000 100000 100000 100000 100000 100000
          100000 100000 100000 100000 100000 100000 100000 100000 100000 100000 100000 100000
          100000 100000 100000 100000 100000 100000 100000 100000 100000 100000 100000 100000
          100000 100000 100000 100000 100000 100000 100000 100000 100000 100000 100000 100000
          100000 100000 100000 100000 100000 100000 100000 100000 100000 100000 100000 100000
          100000 100000 100000 100000 100000 100000 100000 100000 100000 100000 100000 100000
          100000 100000 100000 100000 100000 100000 100000 100000 100000 100000 100000 100000
          100000 100000 100000 100000 100000 100000 100000 100000 100000 100000 100000 100000
          100000 100000 100000 100000 100000 100000 100000 100000 100000 100000 100000 100000
          100000 100000 100000 100000 100000 100000 100000 100000 100000 100000 100000 100000
          100000 100000 100000 100000 100000 100000 100000 100000 100000 100000 100000 100000
          100000 100000 100000 100000 100000 100000 100000 100000 100000 100000 100000 100000
          100000 100000 100000 100000 100000 100000 100000 100000 100000 100000 100000 100000
          100000 100000 100000 100000 100000 100000 100000 100000 100000 100000 100000 100000
          100000 100000 100000 100000 100000 100000 100000 100000 100000
        </DataArray>
        <DataArray type="Float32" Name="pw" NumberOfComponents="1" format="ascii">
          95777.7 95794.4 95811.9 95830.4 95849.8 95870.2 95891.6 95914.1 95937.8 95962.6 95988.6 96015.8
          96044.3 96074.2 96105.4 96138 96172.1 96207.7 96244.8 96283.4 96323.7 96365.5 96409.1 96454.2
          96501.1 96549.8 96600.1 96652.2 96706.1 96761.7 96819 96878.2 96939.1 97001.7 97066.1 97132.1
          97199.8 97269.2 97340.2 97412.8 97486.9 97562.5 97639.6 97718 97797.8 97878.9 97961.3 98044.8
          98129.5 98215.2 98302 98302 98302 98302 98302 98302 98302 98302 98302 98302
          98302 98302 98302 98302 98302 98302 98302 98302 98302 98302 98302 98302
          98302 98302 98302 98302 98302 98302 98302 98302 98302 98302 98302 98302
          98302 98302 98302 98302 98302 98302 98302 98302 98302 98302 98302 98302
          98302 98302 98302 98302 98302 98302 98302 98302 98302 98302 98302 98302
          98302 98302 98302 98302 98302 98302 98302 98302 98302 98302 98302 98302
          98302 98302 98302 98302 98302 98302 98302 98302 98302 98302 98302 98302
          98302 98302 98302 98302 98302 98302 98302 98302 98302 98302 98302 98302
          98302 98302 98302 98302 98302 98302 98302 98302 98302 98302 98302 98302
          98302 98302 98302 98302 98302 98302 98302 98302 98302 98302 98302 98302
          98302 98302 98302 98302 98302 98302 98302 98302 98302 98302 98302 98302
          98302 98302 98302 98302 98302 98302 98302 98302 98302 98302 98302 98302
          98302 98302 98302 98302 98302 98302 98302 98302 98302
        </DataArray>
        <DataArray type="Float32" Name="pc" NumberOfComponents="1" format="ascii">
          4222.29 4205.62 4188.08 4169.62 4150.21 4129.8 4108.36 4085.85 4062.21 4037.42 4011.43 3984.19
          3955.66 3925.81 3894.59 3861.96 3827.88 3792.31 3755.22 3716.57 3676.33 3634.46 3590.95 3545.75
          3498.86 3450.25 3399.9 3347.8 3293.95 3238.33 3180.95 3121.82 3060.93 2998.3 2933.95 2867.9
          2800.17 2730.79 2659.79 2587.22 2513.11 2437.5 2360.44 2281.98 2202.17 2121.06 2038.71 1955.17
          1870.5 1784.76 1698 1698 1698 1698 1698 1698 1698 1698 1698 1698
          1698 1698 1698 1698 1698 1698 1698 1698 1698 1698 1698 1698
          1698 1698 1698 1698 1698 1698 1698 1698 1698 1698 1698 1698
          1698 1698 1698 1698 1698 1698 1698 1698 1698 1698 1698 1698
          1698 1698 1698 1698 1698 1698 1698 1698 1698 1698 1698 1698
          1698 1698 1698 1698 1698 1698 1698 1698 1698 1698 1698 1698
          1698 1698 1698 1698 1698 1698 1698 1698 1698 1698 1698 1698
          1698 1698 1698 1698 1698 1698 1698 1698 1698 1698 1698 1698
          1698 1698 1698 1698 1698 1698 1698 1698 1698 1698 1698 1698
          1698 1698 1698 1698 1698 1698 1698 1698 1698 1698 1698 1698
          1698 1698 1698 1698 1698 1698 1698 1698 1698 1698 1698 1698
          1698 1698 1698 1698 1698 1698 1698 1698 1698 1698 1698 1698
          1698 1698 1698 1698 1698 1698 1698 1698 1698
        </DataArray>
        <DataArray type="Float32" Name="rhoW" NumberOfComponents="1" format="ascii">
          1000 1000 1000 1000 1000 1000 1000 1000 1000 1000 1000 1000
          1000 1000 1000 1000 1000 1000 1000 1000 1000 1000 1000 1000
          1000 1000 1000 1000 1000 1000 1000 1000 1000 1000 1000 1000
          1000 1000 1000 1000 1000 1000 1000 1000 1000 1000 1000 1000
          1000 1000 1000 1000 1000 1000 1000 1000 1000 1000 1000 1000
          1000 1000 1000 1000 1000 1000 1000 1000 1000 1000 1000 1000
          1000 1000 1000 1000 1000 1000 1000 1000 1000 1000 1000 1000
          1000 1000 1000 1000 1000 1000 1000 1000 1000 1000 1000 1000
          1000 1000 1000 1000 1000 1000 1000 1000 1000 1000 1000 1000
          1000 1000 1000 1000 1000 1000 1000 1000 1000 1000 1000 1000
          1000 1000 1000 1000 1000 1000 1000 1000 1000 1000 1000 1000
          1000 1000 1000 1000 1000 1000 1000 1000 1000 1000 1000 1000
          1000 1000 1000 1000 1000 1000 1000 1000 1000 1000 1000 1000
          1000 1000 1000 1000 1000 1000 1000 1000 1000 1000 1000 1000
          1000 1000 1000 1000 1000 1000 1000 1000 1000 1000 1000 1000
          1000 1000 1000 1000 1000 1000 1000 1000 1000 1000 1000 1000
          1000 1000 1000 1000 1000 1000 1000 1000 1000
        </DataArray>
        <DataArray type="Float32" Name="rhoN" NumberOfComponents="1" format="ascii">
          1e-10 1e-10 1e-10 1e-10 1e-10 1e-10 1e-10 1e-10 1e-10 1e-10 1e-10 1e-10
          1e-10 1e-10 1e-10 1e-10 1e-10 1e-10 1e-10 1e-10 1e-10 1e-10 1e-10 1e-10
          1e-10 1e-10 1e-10 1e-10 1e-10 1e-10 1e-10 1e-10 1e-10 1e-10 1e-10 1e-10
          1e-10 1e-10 1e-10 1e-10 1e-10 1e-10 1e-10 1e-10 1e-10 1e-10 1e-10 1e-10
          1e-10 1e-10 1e-10 1e-10 1e-10 1e-10 1e-10 1e-10 1e-10 1e-10 1e-10 1e-10
          1e-10 1e-10 1e-10 1e-10 1e-10 1e-10 1e-10 1e-10 1e-10 1e-10 1e-10 1e-10
          1e-10 1e-10 1e-10 1e-10 1e-10 1e-10 1e-10 1e-10 1e-10 1e-10 1e-10 1e-10
          1e-10 1e-10 1e-10 1e-10 1e-10 1e-10 1e-10 1e-10 1e-10 1e-10 1e-10 1e-10
          1e-10 1e-10 1e-10 1e-10 1e-10 1e-10 1e-10 1e-10 1e-10 1e-10 1e-10 1e-10
          1e-10 1e-10 1e-10 1e-10 1e-10 1e-10 1e-10 1e-10 1e-10 1e-10 1e-10 1e-10
          1e-10 1e-10 1e-10 1e-10 1e-10 1e-10 1e-10 1e-10 1e-10 1e-10 1e-10 1e-10
          1e-10 1e-10 1e-10 1e-10 1e-10 1e-10 1e-10 1e-10 1e-10 1e-10 1e-10 1e-10
          1e-10 1e-10 1e-10 1e-10 1e-10 1e-10 1e-10 1e-10 1e-10 1e-10 1e-10 1e-10
          1e-10 1e-10 1e-10 1e-10 1e-10 1e-10 1e-10 1e-10 1e-10 1e-10 1e-10 1e-10
          1e-10 1e-10 1e-10 1e-10 1e-10 1e-10 1e-10 1e-10 1e-10 1e-10 1e-10 1e-10
          1e-10 1e-10 1e-10 1e-10 1e-10 1e-10 1e-10 1e-10 1e-10 1e-10 1e-10 1e-10
          1e-10 1e-10 1e-10 1e-10 1e-10 1e-10 1e-10 1e-10 1e-10
        </DataArray>
        <DataArray type="Float32" Name="mobW" NumberOfComponents="1" format="ascii">
          12.0466 12.1777 12.3176 12.4669 12.6264 12.7968 12.979 13.1738 13.3822 13.6052 13.8441 14.1
          14.3743 14.6685 14.9843 15.3234 15.6878 16.0796 16.5013 16.9553 17.4447 17.9725 18.5423 19.1579
          19.8236 20.5442 21.3249 22.1718 23.0912 24.0907 25.1782 26.3631 27.6556 29.0673 30.6111 32.3016
          34.1555 36.1914 38.4305 40.8967 43.6173 46.6234 49.9504 53.6388 57.7349 62.2918 67.3705 73.0415
          79.3858 86.4972 0.500003 0.500003 0.500003 0.500003 0.500003 0.500003 0.500003 0.500003 0.500003 0.500003
          0.500003 0.500003 0.500003 0.500003 0.500003 0.500003 0.500003 0.500003 0.500003 0.500003 0.500003 0.500003
          0.500003 0.500003 0.500003 0.500003 0.500003 0.500003 0.500003 0.500003 0.500003 0.500003 0.500003 0.500003
          0.500003 0.500003 0.500003 0.500003 0.500003 0.500003 0.500003 0.500003 0.500003 0.500003 0.500003 0.500003
          0.500003 0.500003 0.500003 0.500003 0.500003 0.500003 0.500003 0.500003 0.500003 0.500003 0.500003 0.500003
          0.500003 0.500003 0.500003 0.500003 0.500003 0.500003 0.500003 0.500003 0.500003 0.500003 0.500003 0.500003
          0.500003 0.500003 0.500003 0.500003 0.500003 0.500003 0.500003 0.500003 0.500003 0.500003 0.500003 0.500003
          0.500003 0.500003 0.500003 0.500003 0.500003 0.500003 0.500003 0.500003 0.500003 0.500003 0.500003 0.500003
          0.500003 0.500003 0.500003 0.500003 0.500003 0.500003 0.500003 0.500003 0.500003 0.500003 0.500003 0.500003
          0.500003 0.500003 0.500003 0.500003 0.500003 0.500003 0.500003 0.500003 0.500003 0.500003 0.500003 0.500003
          0.500003 0.500003 0.500003 0.500003 0.500003 0.500003 0.500003 0.500003 0.500003 0.500003 0.500003 0.500003
          0.500003 0.500003 0.500003 0.500003 0.500003 0.500003 0.500003 0.500003 0.500003 0.500003 0.500003 0.500003
          0.500003 0.500003 0.500003 0.500003 0.500003 0.500003 0.500003 0.500003 0.500003
        </DataArray>
        <DataArray type="Float32" Name="mobN" NumberOfComponents="1" format="ascii">
          1e+10 1e+10 1e+10 1e+10 1e+10 1e+10 1e+10 1e+10 1e+10 1e+10 1e+10 1e+10
          1e+10 1e+10 1e+10 1e+10 1e+10 1e+10 1e+10 1e+10 1e+10 1e+10 1e+10 1e+10
          1e+10 1e+10 1e+10 1e+10 1e+10 1e+10 1e+10 1e+10 1e+10 1e+10 1e+10 1e+10
          1e+10 1e+10 1e+10 1e+10 1e+10 1e+10 1e+10 1e+10 1e+10 1e+10 1e+10 1e+10
          1e+10 1e+10 1e+10 1e+10 1e+10 1e+10 1e+10 1e+10 1e+10 1e+10 1e+10 1e+10
          1e+10 1e+10 1e+10 1e+10 1e+10 1e+10 1e+10 1e+10 1e+10 1e+10 1e+10 1e+10
          1e+10 1e+10 1e+10 1e+10 1e+10 1e+10 1e+10 1e+10 1e+10 1e+10 1e+10 1e+10
          1e+10 1e+10 1e+10 1e+10 1e+10 1e+10 1e+10 1e+10 1e+10 1e+10 1e+10 1e+10
          1e+10 1e+10 1e+10 1e+10 1e+10 1e+10 1e+10 1e+10 1e+10 1e+10 1e+10 1e+10
          1e+10 1e+10 1e+10 1e+10 1e+10 1e+10 1e+10 1e+10 1e+10 1e+10 1e+10 1e+10
          1e+10 1e+10 1e+10 1e+10 1e+10 1e+10 1e+10 1e+10 1e+10 1e+10 1e+10 1e+10
          1e+10 1e+10 1e+10 1e+10 1e+10 1e+10 1e+10 1e+10 1e+10 1e+10 1e+10 1e+10
          1e+10 1e+10 1e+10 1e+10 1e+10 1e+10 1e+10 1e+10 1e+10 1e+10 1e+10 1e+10
          1e+10 1e+10 1e+10 1e+10 1e+10 1e+10 1e+10 1e+10 1e+10 1e+10 1e+10 1e+10
          1e+10 1e+10 1e+10 1e+10 1e+10 1e+10 1e+10 1e+10 1e+10 1e+10 1e+10 1e+10
          1e+10 1e+10 1e+10 1e+10 1e+10 1e+10 1e+10 1e+10 1e+10 1e+10 1e+10 1e+10
          1e+10 1e+10 1e+10 1e+10 1e+10 1e+10 1e+10 1e+10 1e+10
        </DataArray>
        <DataArray type="Float32" Name="porosity" NumberOfComponents="1" format="ascii">
          1 1 1 1 1 1 1 1 1 1 1 1
          1 1 1 1 1 1 1 1 1 1 1 1
          1 1 1 1 1 1 1 1 1 1 1 1
          1 1 1 1 1 1 1 1 1 1 1 1
          1 1 1 1 1 1 1 1 1 1 1 1
          1 1 1 1 1 1 1 1 1 1 1 1
          1 1 1 1 1 1 1 1 1 1 1 1
          1 1 1 1 1 1 1 1 1 1 1 1
          1 1 1 1 1 1 1 1 1 1 1 1
          1 1 1 1 1 1 1 1 1 1 1 1
          1 1 1 1 1 1 1 1 1 1 1 1
          1 1 1 1 1 1 1 1 1 1 1 1
          1 1 1 1 1 1 1 1 1 1 1 1
          1 1 1 1 1 1 1 1 1 1 1 1
          1 1 1 1 1 1 1 1 1 1 1 1
          1 1 1 1 1 1 1 1 1 1 1 1
          1 1 1 1 1 1 1 1 1
        </DataArray>
        <DataArray type="Float32" Name="temperature" NumberOfComponents="1" format="ascii">
          283.15 283.15 283.15 283.15 283.15 283.15 283.15 283.15 283.15 283.15 283.15 283.15
          283.15 283.15 283.15 283.15 283.15 283.15 283.15 283.15 283.15 283.15 283.15 283.15
          283.15 283.15 283.15 283.15 283.15 283.15 283.15 283.15 283.15 283.15 283.15 283.15
          283.15 283.15 283.15 283.15 283.15 283.15 283.15 283.15 283.15 283.15 283.15 283.15
          283.15 283.15 283.15 283.15 283.15 283.15 283.15 283.15 283.15 283.15 283.15 283.15
          283.15 283.15 283.15 283.15 283.15 283.15 283.15 283.15 283.15 283.15 283.15 283.15
          283.15 283.15 283.15 283.15 283.15 283.15 283.15 283.15 283.15 283.15 283.15 283.15
          283.15 283.15 283.15 283.15 283.15 283.15 283.15 283.15 283.15 283.15 283.15 283.15
          283.15 283.15 283.15 283.15 283.15 283.15 283.15 283.15 283.15 283.15 283.15 283.15
          283.15 283.15 283.15 283.15 283.15 283.15 283.15 283.15 283.15 283.15 283.15 283.15
          283.15 283.15 283.15 283.15 283.15 283.15 283.15 283.15 283.15 283.15 283.15 283.15
          283.15 283.15 283.15 283.15 283.15 283.15 283.15 283.15 283.15 283.15 283.15 283.15
          283.15 283.15 283.15 283.15 283.15 283.15 283.15 283.15 283.15 283.15 283.15 283.15
          283.15 283.15 283.15 283.15 283.15 283.15 283.15 283.15 283.15 283.15 283.15 283.15
          283.15 283.15 283.15 283.15 283.15 283.15 283.15 283.15 283.15 283.15 283.15 283.15
          283.15 283.15 283.15 283.15 283.15 283.15 283.15 283.15 283.15 283.15 283.15 283.15
          283.15 283.15 283.15 283.15 283.15 283.15 283.15 283.15 283.15
        </DataArray>
        <DataArray type="Float32" Name="pressure head" NumberOfComponents="1" format="ascii">
          -43.0406 -42.8707 -42.6919 -42.5038 -42.3059 -42.0979 -41.8793 -41.6498 -41.4089 -41.1562 -40.8912 -40.6135
          -40.3228 -40.0185 -39.7002 -39.3676 -39.0202 -38.6576 -38.2795 -37.8855 -37.4753 -37.0486 -36.605 -36.1443
          -35.6663 -35.1707 -34.6575 -34.1264 -33.5774 -33.0105 -32.4256 -31.8228 -31.2021 -30.5637 -29.9077 -29.2344
          -28.544 -27.8368 -27.1131 -26.3733 -25.6178 -24.8471 -24.0616 -23.2618 -22.4482 -21.6214 -20.7819 -19.9304
          -19.0673 -18.1933 -17.3089 -17.3089 -17.3089 -17.3089 -17.3089 -17.3089 -17.3089 -17.3089 -17.3089 -17.3089
          -17.3089 -17.3089 -17.3089 -17.3089 -17.3089 -17.3089 -17.3089 -17.3089 -17.3089 -17.3089 -17.3089 -17.3089
          -17.3089 -17.3089 -17.3089 -17.3089 -17.3089 -17.3089 -17.3089 -17.3089 -17.3089 -17.3089 -17.3089 -17.3089
          -17.3089 -17.3089 -17.3089 -17.3089 -17.3089 -17.3089 -17.3089 -17.3089 -17.3089 -17.3089 -17.3089 -17.3089
          -17.3089 -17.3089 -17.3089 -17.3089 -17.3089 -17.3089 -17.3089 -17.3089 -17.3089 -17.3089 -17.3089 -17.3089
          -17.3089 -17.3089 -17.3089 -17.3089 -17.3089 -17.3089 -17.3089 -17.3089 -17.3089 -17.3089 -17.3089 -17.3089
          -17.3089 -17.3089 -17.3089 -17.3089 -17.3089 -17.3089 -17.3089 -17.3089 -17.3089 -17.3089 -17.3089 -17.3089
          -17.3089 -17.3089 -17.3089 -17.3089 -17.3089 -17.3089 -17.3089 -17.3089 -17.3089 -17.3089 -17.3089 -17.3089
          -17.3089 -17.3089 -17.3089 -17.3089 -17.3089 -17.3089 -17.3089 -17.3089 -17.3089 -17.3089 -17.3089 -17.3089
          -17.3089 -17.3089 -17.3089 -17.3089 -17.3089 -17.3089 -17.3089 -17.3089 -17.3089 -17.3089 -17.3089 -17.3089
          -17.3089 -17.3089 -17.3089 -17.3089 -17.3089 -17.3089 -17.3089 -17.3089 -17.3089 -17.3089 -17.3089 -17.3089
          -17.3089 -17.3089 -17.3089 -17.3089 -17.3089 -17.3089 -17.3089 -17.3089 -17.3089 -17.3089 -17.3089 -17.3089
          -17.3089 -17.3089 -17.3089 -17.3089 -17.3089 -17.3089 -17.3089 -17.3089 -17.3089
        </DataArray>
        <DataArray type="Float32" Name="water content" NumberOfComponents="1" format="ascii">
          0.301554 0.301925 0.302316 0.302729 0.303166 0.303627 0.304114 0.304628 0.30517 0.305742 0.306345 0.306981
          0.307651 0.308356 0.3091 0.309882 0.310706 0.311572 0.312483 0.313441 0.314447 0.315504 0.316613 0.317777
          0.318997 0.320277 0.321616 0.323019 0.324487 0.326022 0.327627 0.329302 0.331051 0.332876 0.334777 0.336757
          0.338818 0.340962 0.343189 0.345501 0.347898 0.350383 0.352955 0.355613 0.358359 0.361192 0.364109 0.367109
          0.37019 0.373347 0.100037 0.100037 0.100037 0.100037 0.100037 0.100037 0.100037 0.100037 0.100037 0.100037
          0.100037 0.100037 0.100037 0.100037 0.100037 0.100037 0.100037 0.100037 0.100037 0.100037 0.100037 0.100037
          0.100037 0.100037 0.100037 0.100037 0.100037 0.100037 0.100037 0.100037 0.100037 0.100037 0.100037 0.100037
          0.100037 0.100037 0.100037 0.100037 0.100037 0.100037 0.100037 0.100037 0.100037 0.100037 0.100037 0.100037
          0.100037 0.100037 0.100037 0.100037 0.100037 0.100037 0.100037 0.100037 0.100037 0.100037 0.100037 0.100037
          0.100037 0.100037 0.100037 0.100037 0.100037 0.100037 0.100037 0.100037 0.100037 0.100037 0.100037 0.100037
          0.100037 0.100037 0.100037 0.100037 0.100037 0.100037 0.100037 0.100037 0.100037 0.100037 0.100037 0.100037
          0.100037 0.100037 0.100037 0.100037 0.100037 0.100037 0.100037 0.100037 0.100037 0.100037 0.100037 0.100037
          0.100037 0.100037 0.100037 0.100037 0.100037 0.100037 0.100037 0.100037 0.100037 0.100037 0.100037 0.100037
          0.100037 0.100037 0.100037 0.100037 0.100037 0.100037 0.100037 0.100037 0.100037 0.100037 0.100037 0.100037
          0.100037 0.100037 0.100037 0.100037 0.100037 0.100037 0.100037 0.100037 0.100037 0.100037 0.100037 0.100037
          0.100037 0.100037 0.100037 0.100037 0.100037 0.100037 0.100037 0.100037 0.100037 0.100037 0.100037 0.100037
          0.100037 0.100037 0.100037 0.100037 0.100037 0.100037 0.100037 0.100037 0.100037
        </DataArray>
      </PointData>
      <CellData Scalars="process rank">
        <DataArray type="Float32" Name="process rank" NumberOfComponents="1" format="ascii">
          0 0 0 0 0 0 0 0 0 0 0 0
          0 0 0 0 0 0 0 0 0 0 0 0
          0 0 0 0 0 0 0 0 0 0 0 0
          0 0 0 0 0 0 0 0 0 0 0 0
          0 0 0 0 0 0 0 0 0 0 0 0
          0 0 0 0 0 0 0 0 0 0 0 0
          0 0 0 0 0 0 0 0 0 0 0 0
          0 0 0 0 0 0 0 0 0 0 0 0
          0 0 0 0 0 0 0 0 0 0 0 0
          0 0 0 0 0 0 0 0 0 0 0 0
          0 0 0 0 0 0 0 0 0 0 0 0
          0 0 0 0 0 0 0 0 0 0 0 0
          0 0 0 0 0 0 0 0 0 0 0 0
          0 0 0 0 0 0 0 0 0 0 0 0
          0 0 0 0 0 0 0 0 0 0 0 0
          0 0 0 0 0 0 0 0 0 0 0 0
          0 0 0 0 0 0 0 0
        </DataArray>
      </CellData>
      <Points>
        <DataArray type="Float32" Name="Coordinates" NumberOfComponents="3" format="ascii">
          0 0 0 -0.01 0 0 -0.02 0 0 -0.03 0 0
          -0.04 0 0 -0.05 0 0 -0.06 0 0 -0.07 0 0
          -0.08 0 0 -0.09 0 0 -0.1 0 0 -0.11 0 0
          -0.12 0 0 -0.13 0 0 -0.14 0 0 -0.15 0 0
          -0.16 0 0 -0.17 0 0 -0.18 0 0 -0.19 0 0
          -0.2 0 0 -0.21 0 0 -0.22 0 0 -0.23 0 0
          -0.24 0 0 -0.25 0 0 -0.26 0 0 -0.27 0 0
          -0.28 0 0 -0.29 0 0 -0.3 0 0 -0.31 0 0
          -0.32 0 0 -0.33 0 0 -0.34 0 0 -0.35 0 0
          -0.36 0 0 -0.37 0 0 -0.38 0 0 -0.39 0 0
          -0.4 0 0 -0.41 0 0 -0.42 0 0 -0.43 0 0
          -0.44 0 0 -0.45 0 0 -0.46 0 0 -0.47 0 0
          -0.48 0 0 -0.49 0 0 -0.5 0 0 -0.51 0 0
          -0.52 0 0 -0.53 0 0 -0.54 0 0 -0.55 0 0
          -0.56 0 0 -0.57 0 0 -0.58 0 0 -0.59 0 0
          -0.6 0 0 -0.61 0 0 -0.62 0 0 -0.63 0 0
          -0.64 0 0 -0.65 0 0 -0.66 0 0 -0.67 0 0
          -0.68 0 0 -0.69 0 0 -0.7 0 0 -0.71 0 0
          -0.72 0 0 -0.73 0 0 -0.74 0 0 -0.75 0 0
          -0.76 0 0 -0.77 0 0 -0.78 0 0 -0.79 0 0
          -0.8 0 0 -0.81 0 0 -0.82 0 0 -0.83 0 0
          -0.84 0 0 -0.85 0 0 -0.86 0 0 -0.87 0 0
          -0.88 0 0 -0.89 0 0 -0.9 0 0 -0.91 0 0
          -0.92 0 0 -0.93 0 0 -0.94 0 0 -0.95 0 0
          -0.96 0 0 -0.97 0 0 -0.98 0 0 -0.99 0 0
          -1 0 0 -1.01 0 0 -1.02 0 0 -1.03 0 0
          -1.04 0 0 -1.05 0 0 -1.06 0 0 -1.07 0 0
          -1.08 0 0 -1.09 0 0 -1.1 0 0 -1.11 0 0
          -1.12 0 0 -1.13 0 0 -1.14 0 0 -1.15 0 0
          -1.16 0 0 -1.17 0 0 -1.18 0 0 -1.19 0 0
          -1.2 0 0 -1.21 0 0 -1.22 0 0 -1.23 0 0
          -1.24 0 0 -1.25 0 0 -1.26 0 0 -1.27 0 0
          -1.28 0 0 -1.29 0 0 -1.3 0 0 -1.31 0 0
          -1.32 0 0 -1.33 0 0 -1.34 0 0 -1.35 0 0
          -1.36 0 0 -1.37 0 0 -1.38 0 0 -1.39 0 0
          -1.4 0 0 -1.41 0 0 -1.42 0 0 -1.43 0 0
          -1.44 0 0 -1.45 0 0 -1.46 0 0 -1.47 0 0
          -1.48 0 0 -1.49 0 0 -1.5 0 0 -1.51 0 0
          -1.52 0 0 -1.53 0 0 -1.54 0 0 -1.55 0 0
          -1.56 0 0 -1.57 0 0 -1.58 0 0 -1.59 0 0
          -1.6 0 0 -1.61 0 0 -1.62 0 0 -1.63 0 0
          -1.64 0 0 -1.65 0 0 -1.66 0 0 -1.67 0 0
          -1.68 0 0 -1.69 0 0 -1.7 0 0 -1.71 0 0
          -1.72 0 0 -1.73 0 0 -1.74 0 0 -1.75 0 0
          -1.76 0 0 -1.77 0 0 -1.78 0 0 -1.79 0 0
          -1.8 0 0 -1.81 0 0 -1.82 0 0 -1.83 0 0
          -1.84 0 0 -1.85 0 0 -1.86 0 0 -1.87 0 0
          -1.88 0 0 -1.89 0 0 -1.9 0 0 -1.91 0 0
          -1.92 0 0 -1.93 0 0 -1.94 0 0 -1.95 0 0
          -1.96 0 0 -1.97 0 0 -1.98 0 0 -1.99 0 0
          -2 0 0
        </DataArray>
      </Points>
      <Lines>
        <DataArray type="Int32" Name="connectivity" NumberOfComponents="1" format="ascii">
          0 1 1 2 2 3 3 4 4 5 5 6
          6 7 7 8 8 9 9 10 10 11 11 12
          12 13 13 14 14 15 15 16 16 17 17 18
          18 19 19 20 20 21 21 22 22 23 23 24
          24 25 25 26 26 27 27 28 28 29 29 30
          30 31 31 32 32 33 33 34 34 35 35 36
          36 37 37 38 38 39 39 40 40 41 41 42
          42 43 43 44 44 45 45 46 46 47 47 48
          48 49 49 50 50 51 51 52 52 53 53 54
          54 55 55 56 56 57 57 58 58 59 59 60
          60 61 61 62 62 63 63 64 64 65 65 66
          66 67 67 68 68 69 69 70 70 71 71 72
          72 73 73 74 74 75 75 76 76 77 77 78
          78 79 79 80 80 81 81 82 82 83 83 84
          84 85 85 86 86 87 87 88 88 89 89 90
          90 91 91 92 92 93 93 94 94 95 95 96
          96 97 97 98 98 99 99 100 100 101 101 102
          102 103 103 104 104 105 105 106 106 107 107 108
          108 109 109 110 110 111 111 112 112 113 113 114
          114 115 115 116 116 117 117 118 118 119 119 120
          120 121 121 122 122 123 123 124 124 125 125 126
          126 127 127 128 128 129 129 130 130 131 131 132
          132 133 133 134 134 135 135 136 136 137 137 138
          138 139 139 140 140 141 141 142 142 143 143 144
          144 145 145 146 146 147 147 148 148 149 149 150
          150 151 151 152 152 153 153 154 154 155 155 156
          156 157 157 158 158 159 159 160 160 161 161 162
          162 163 163 164 164 165 165 166 166 167 167 168
          168 169 169 170 170 171 171 172 172 173 173 174
          174 175 175 176 176 177 177 178 178 179 179 180
          180 181 181 182 182 183 183 184 184 185 185 186
          186 187 187 188 188 189 189 190 190 191 191 192
          192 193 193 194 194 195 195 196 196 197 197 198
          198 199 199 200
        </DataArray>
        <DataArray type="Int32" Name="offsets" NumberOfComponents="1" format="ascii">
          2 4 6 8 10 12 14 16 18 20 22 24
          26 28 30 32 34 36 38 40 42 44 46 48
          50 52 54 56 58 60 62 64 66 68 70 72
          74 76 78 80 82 84 86 88 90 92 94 96
          98 100 102 104 106 108 110 112 114 116 118 120
          122 124 126 128 130 132 134 136 138 140 142 144
          146 148 150 152 154 156 158 160 162 164 166 168
          170 172 174 176 178 180 182 184 186 188 190 192
          194 196 198 200 202 204 206 208 210 212 214 216
          218 220 222 224 226 228 230 232 234 236 238 240
          242 244 246 248 250 252 254 256 258 260 262 264
          266 268 270 272 274 276 278 280 282 284 286 288
          290 292 294 296 298 300 302 304 306 308 310 312
          314 316 318 320 322 324 326 328 330 332 334 336
          338 340 342 344 346 348 350 352 354 356 358 360
          362 364 366 368 370 372 374 376 378 380 382 384
          386 388 390 392 394 396 398 400
        </DataArray>
      </Lines>
    </Piece>
  </PolyData>
</VTKFile>
