<?xml version="1.0"?>
<VTKFile type="UnstructuredGrid" version="0.1" byte_order="LittleEndian">
  <UnstructuredGrid>
    <Piece NumberOfCells="960" NumberOfPoints="1296">
      <CellData Scalars="p (Pa)">
        <DataArray type="Float32" Name="p (Pa)" NumberOfComponents="1" format="ascii">
          36647.4 36596.7 36505.6 36442.2 36513.5 36607.8 36663.6 36684.5 36608 36517 36352.1 36235.9
          36375.9 36545.6 36641.9 36677.1 36552.9 36411.3 36160.4 35995.4 36226.3 36480.3 36619.4 36669.5
          36541.7 36409.3 36210.8 36157.1 36325 36517 36629.5 36672 36600 36528.7 36431.1 36404
          36465.1 36573.3 36647.4 36677.7 36654.5 36626.7 36589 36571.2 36583.1 36630.4 36668.4 36685.1
          36682.1 36673.2 36660.5 36651.3 36651.3 36668.1 36683.7 36690.9 36691.4 36688.5 36684 36679.6
          36678.3 36684.3 36690.6 36693.7 36437.6 36268.3 35956.9 35725.3 35982.7 36304.8 36491.2 36560.4
          36295.5 35978.1 35384.5 34923.8 35473.4 36080.9 36414.2 36534.6 36077.7 35549.2 34569.9 33842.1
          34857.1 35826.3 36328.8 36506.2 35999.2 35464.5 34652.3 34564.7 35244 35953.8 36359.8 36512.8
          36227.7 35947.3 35571.3 35507.5 35701.3 36122.1 36411.2 36528.5 36440.6 36334 36192.9 36127.1
          36144.4 36333.3 36487.7 36555.1 36546 36512.6 36465.1 36426.8 36415.4 36483.6 36547.9 36577.7
          36581.1 36570.3 36553.1 36534.3 36525.4 36549.9 36576 36588.8 35977.1 35424.7 34382.9 33534.3
          34459.4 35538.9 36151.3 36377.9 35472.6 34388.2 32271.4 30372.7 32585.4 34742.2 35879.6 36287.6
          34622 32657.7 28708.7 25041.9 29951.6 33738 35553.1 36180.7 34163.6 31934.6 28315.2 28771.7
          31569.7 34190.7 35646.1 36194.8 35077.7 33970.7 32499.7 32443.7 32908.6 34621.4 35771.7 36232.5
          35905.8 35498.8 34977.1 34726.7 34633.1 35419.5 36055.5 36329.8 36306.8 36181 36004.3 35841.4
          35741.7 36027.4 36295.9 36418.8 36438.4 36397.9 36332.1 36250.9 36198.2 36301.2 36410.6 36463.1
          35019 33565.7 30721.1 28074.1 30870.6 33836 35471.3 36076.2 33558 30519.7 24094.3 16838.4
          24952.8 31466.9 34675.8 35812.9 30793.8 24522.1 9455.16 -11797.6 14254.1 27987.9 33613.1 35474.3
          28644.6 20055.4 2935.97 10552.1 21017.9 29451.8 33841.2 35485.2 31865.1 28100.2 23060.4 23631.5
          23213.5 29961.9 33988.8 35532.4 34556.2 33262.1 31687.1 30800.6 29635.6 32642 34891.5 35833.5
          35812 35419.6 34880.2 34271.9 33691.9 34750.3 35702.3 36128.7 36217.1 36090.4 35880.3 35578.6
          35331.2 35707.2 36095.5 36278.2 33446 30448.1 24260.2 17501.2 24314.6 30888.1 34346.3 35616.2
          30111.1 23163 6153.12 -20760 7682.76 24996.5 32455.7 35000.4 22725.8 4687.43 -61615.1 -274047
          -41244.1 13984.9 29536.4 34122.3 14137.7 -21255.2 -139334 -45410.6 -6703.61 18650.9 29997.5 34065.9
          24565.2 12894.9 -1801.86 1515.77 -14216.3 16755.5 29653.7 34005.6 31803.4 28395.3 24821.1 21490.1
          13772.4 25262.4 32114.9 34772.3 34906.4 33927.9 32641.2 30640.9 28042.5 31565.3 34365.7 35564.6
          35873.7 35558.4 35016.2 34082.4 33158.3 34330.5 35457.1 35970.3 31689.1 27034.1 17596.6 8923.85
          16756.4 27543.6 33067.7 35083.8 26194.8 14358.1 -15662.2 -47853.4 -21150.7 15962.7 29614.7 33982
          11133.6 -31434.9 -216139 -311575 -249054 -14136.2 23241.7 32227.5 -18924.9 -241572 -112687 -131893
          -81467.7 -2631.28 23604.3 31902 12828.7 -24743.3 -15197.1 -46900.3 -256887 -18589 21416.4 31516.4
          28291.8 20981.2 17620.9 2641.39 -45103.4 8461.37 27013.5 33042.2 33870.3 32013.4 29720.9 23967.4
          14400.7 25306.6 32056.1 34686.1 35498.1 34904.3 33797.5 31491.3 28794.4 31856.7 34423.2 35526.2
          30143.3 24026.9 11757.6 5585.17 15692 26463.7 32318.1 34632.2 25936.1 15511.8 -8759.55 -48440.4
          -19634 14464.5 28320.1 33213.8 15456.2 -11330.1 -90257.5 -316577 -221489 -17505.8 20638.4 30895
          1427.5 -82082 -315025 -398618 -334241 -34810 17143.8 29976.8 19335.3 -1373.39 -43056.9 -116195
          -334528 -43828.8 15518.4 29719 29666.9 23321.1 10338 -26630.2 -239304 -15681.8 22037.8 31632.6
          34008 31936.7 27299.9 16207.7 -7768.14 18260.9 29974.7 33979 35415 34667.7 32848.8 29000.9
          23789.7 29517.2 33560 35171.8 25193.5 11677.6 -24182.7 -5410.16 13169.9 24003 30875.8 33881.7
          21779 7493.17 -32462.7 -59462.8 -14150.4 9598.69 25403.9 31813.1 12218.1 -19483.8 -205172 -315684
          -103920 -28359.9 15253.1 28687.8 13971.8 -21576.3 -223392 -331597 -124116 -16126.7 18286 29524.2
          25042.7 12639.7 -23576.9 -124316 -286348 -25811.2 18917.9 30350.8 31644.2 27216.7 16673.1 -4910.64
          -35110.6 8347.94 26386.6 32572.1 34544.9 33001.7 29393.2 22727.6 15213.6 25229.5 31792.7 34428.8
          35513.1 34941.7 33557.3 31089.4 28747.8 31702.2 34220.1 35318.5 13873.8 -25259.6 -253354 -43256.9
          1530.3 17896 28554.6 32964.9 7853.77 -16225.6 -103414 -100468 -50526.9 -14579.2 18773 29730.3
          -16097.5 -50843.2 -329456 -324235 -328760 -215651 -5315.34 24424.3 11484.4 -4331.18 -70353.2 -312943
          -105040 -26328.9 15698.4 28712.4 26240.6 19639.8 1246.12 -38111.1 -34379.8 6762.61 25121.5 31817.1
          32517.9 29900.4 23764.7 13814.6 10565.2 22946.1 30674.6 33861.6 34869.2 33938.3 31836.1 28684.5
          27048.9 30770.8 33735 35046.9 35581.4 35243.4 34466.6 33300.9 32608 33847.4 35011.6 35549.3
          3138.65 -50074.8 -329799 -53936.3 3736.23 21458.1 29964.5 33439.2 -25083.3 -71732.6 -349636 -112853
          -24656.8 6318.04 24141.2 31241.2 -187230 -81370.3 -151123 -320289 -119487 -31016.5 14238.4 28255.8
          -10578.2 -6083.34 -26677.8 -77835 -39194.6 1941.56 22831.7 30800.5 23082.1 20948.5 13121.3 280.938
          5000.51 20198.2 29414.9 33254.2 32249.5 30921.3 27900.8 23954.7 24194 29341.7 33067 34702.3
          34889.4 34382.6 33332.1 32045.6 31860.6 33458.1 34790.8 35397 35560.5 35381.2 35008.9 34546.6
          34414.9 34936.4 35424.5 35653.2 7483.04 -22424.7 -91207.1 -23131.4 5447.16 21885.8 30432.4 33714.1
          -17339 -97983.8 -358184 -109994 -45372.6 2071.42 24403.7 31762.1 -62716.7 -303309 -327882 -326351
          -348654 -77915.9 11798.8 28865.8 1924.43 -29339.9 -52154.9 -72098.6 -176464 -11705 22091.3 31245
          24637.1 18022.9 11072.9 4638.11 -4111.23 19590 30032.1 33669.8 32467.7 30726.3 28466.2 26396.8
          25569 30576.5 33714 34957.2 34889.9 34428.5 33745.3 33120.6 33060.8 34226.9 35102.3 35474.7
          35502.4 35372.1 35160.1 34960 34952.8 35260.2 35519.5 35635.8 5604.49 -34274 -62425.9 -14854.1
          8750 24009.5 31338.4 34049.3 -28402.3 -257961 -341540 -99865.8 -35223.1 10390.4 27134.7 32670.5
          -8390.5 -78840.6 -356166 -312366 -282064 -22754.1 20229.4 30853.1 16263.7 -2136.72 -42889.1 -61025.3
          -75099.6 4138.41 25742.2 32277.4 28362.2 22963.1 13823.6 8348 8302.42 23663.6 31259.4 34033.3
          33338.5 31773.9 29331.1 27687.5 28017 31701.8 34079.4 35033.7 35018.3 34609.6 33971.5 33510.7
          33633.8 34514.6 35164.2 35439.5 35460.6 35351.6 35176.8 35042.3 35077 35301.6 35482.3 35562.4
          20137.5 5965.36 -10173.2 -5674.12 14286.8 26425.4 32202.3 34313.2 9288.67 -28691 -84296.3 -72704.2
          -8655.21 18548.7 29580.3 33401.4 10850 -34324.7 -300169 -311760 -60461.4 6061.24 26114 32299.7
          23301.2 8583.9 -32146.2 -49913.4 -12839.2 15710.6 28330.1 32874.8 30692.7 25968.6 16490.4 11079.9
          16955.9 26281.8 31830.4 34081.5 33954.5 32533 29981.3 28247.2 29237.2 32055.6 34063.6 34932.6
          35096.3 34718.3 34052.7 33537.8 33693.1 34449.9 35054.8 35327.3 35405.1 35303 35120.8 34964.9
          34986.7 35193.1 35373.1 35457.2 27832.3 20367 4523.76 -23908.4 9862.88 25713.7 32094.4 34244.2
          23222.9 7365.74 -40016 -237164 -24971.1 16856.3 29434.3 33335.4 20456.6 -9041.37 -181358 -311009
          -66793.3 5246.49 25878.8 32108.5 27219.2 15865.9 -16398 -55090.4 -41656.6 7502.54 25920.6 32001.9
          31994.8 27963.1 19081.3 8996.35 8350.28 22167.3 30190.3 33375.5 34256.2 32945.2 30258.8 27231.7
          26539.6 30369.8 33265.1 34538 35090.2 34717.2 33956.4 33081.5 32826 33822.7 34708.6 35121
          35326.7 35219.2 34997 34734.9 34650.4 34921.4 35190.8 35321.6 30841.5 26027.1 15549.2 438.612
          13571.3 25870.1 31890.2 34069.6 28202.7 19136.4 -4926.36 -61099.1 -20388.1 15185.5 28564.9 32936.3
          25869.6 10261.6 -47367.9 -307980 -197252 -12020.7 22211.6 31021.4 29366.6 21059.9 -2411.16 -69814.7
          -293840 -25553.2 19240.5 30166.1 32592.3 29062.1 20407.8 3145.22 -22657.2 11938 27024.8 32257.9
          34327.3 33048 30068.5 25121.7 20351.6 27285.2 32044.4 34017.1 35023.2 34631.8 33731.1 32360.3
          31354.5 32900.6 34263.2 34883.1 35232.8 35113.6 34839.7 34441.8 34197.9 34585.8 34985.3 35178.3
        </DataArray>
        <DataArray type="Float32" Name="saturation" NumberOfComponents="1" format="ascii">
          0.301501 0.301446 0.301348 0.301279 0.301356 0.301458 0.301519 0.301542 0.301459 0.30136 0.301182 0.301056
          0.301207 0.301391 0.301495 0.301534 0.301399 0.301245 0.300975 0.300798 0.301046 0.30132 0.301471 0.301526
          0.301387 0.301243 0.301029 0.300972 0.301152 0.30136 0.301482 0.301528 0.30145 0.301373 0.301267 0.301238
          0.301304 0.301421 0.301502 0.301534 0.301509 0.301479 0.301438 0.301419 0.301432 0.301483 0.301524 0.301543
          0.301539 0.30153 0.301516 0.301506 0.301506 0.301524 0.301541 0.301549 0.301549 0.301546 0.301541 0.301537
          0.301535 0.301542 0.301549 0.301552 0.301274 0.301091 0.300757 0.30051 0.300785 0.301131 0.301332 0.301407
          0.30112 0.30078 0.30015 0.299667 0.300243 0.30089 0.301249 0.301379 0.300886 0.300323 0.2993 0.298554
          0.299597 0.300618 0.301156 0.301348 0.300802 0.300234 0.299385 0.299294 0.300002 0.300754 0.30119 0.301355
          0.301048 0.300747 0.300347 0.300279 0.300485 0.300934 0.301245 0.301372 0.301277 0.301162 0.30101 0.300939
          0.300958 0.301161 0.301328 0.301401 0.301391 0.301355 0.301304 0.301262 0.30125 0.301324 0.301393 0.301426
          0.301429 0.301418 0.301399 0.301379 0.301369 0.301396 0.301424 0.301438 0.300779 0.300192 0.299107 0.298243
          0.299185 0.300313 0.300965 0.301209 0.300242 0.299112 0.296989 0.295173 0.297297 0.299478 0.300674 0.301112
          0.299353 0.297369 0.293644 0.290468 0.29478 0.298449 0.300328 0.300997 0.298882 0.296661 0.293291 0.293701
          0.296308 0.29891 0.300426 0.301012 0.299827 0.298685 0.297213 0.297158 0.297617 0.299353 0.30056 0.301053
          0.300702 0.30027 0.299722 0.299462 0.299365 0.300186 0.300863 0.301157 0.301133 0.300997 0.300808 0.300634
          0.300528 0.300832 0.301121 0.301254 0.301275 0.301231 0.30116 0.301072 0.301016 0.301127 0.301245 0.301302
          0.299766 0.298274 0.2955 0.293076 0.295641 0.298548 0.300241 0.300885 0.298267 0.29531 0.289687 0.284183
          0.290394 0.29621 0.299409 0.300603 0.295569 0.290038 0.279316 0.26826 0.282404 0.293 0.298322 0.300244
          0.293586 0.286525 0.275517 0.279999 0.287256 0.29432 0.298553 0.300256 0.296594 0.293099 0.288853 0.289312
          0.288975 0.29479 0.298703 0.300306 0.299285 0.297969 0.296422 0.295575 0.294488 0.297353 0.299633 0.300625
          0.300602 0.300186 0.299621 0.298993 0.298402 0.299486 0.300486 0.300941 0.301036 0.3009 0.300675 0.300355
          0.300093 0.300491 0.300905 0.301102 0.298154 0.295243 0.289823 0.284654 0.289867 0.295658 0.299069 0.300394
          0.294928 0.288935 0.277339 0.264551 0.278241 0.29043 0.29717 0.299747 0.288587 0.276497 0.251975 0.225908
          0.257518 0.282224 0.294397 0.29884 0.282326 0.264358 0.238149 0.256284 0.270588 0.285485 0.294823 0.298782
          0.290073 0.281502 0.273001 0.274742 0.267214 0.284125 0.294505 0.29872 0.296534 0.293363 0.290285 0.287619
          0.282082 0.290652 0.296836 0.299509 0.299649 0.298641 0.297352 0.295424 0.293048 0.296304 0.299089 0.30034
          0.300668 0.300333 0.299763 0.298799 0.297866 0.299053 0.300226 0.300771 0.296423 0.292162 0.284722 0.278991
          0.284126 0.292607 0.297775 0.299834 0.29144 0.282474 0.266604 0.255587 0.264399 0.283571 0.294469 0.298696
          0.280366 0.260667 0.23014 0.223687 0.227597 0.267248 0.288998 0.296946 0.265274 0.22814 0.24197 0.239145
          0.247553 0.27258 0.28929 0.296629 0.281459 0.26304 0.266799 0.255857 0.227047 0.265408 0.287562 0.296257
          0.29327 0.287227 0.28474 0.275355 0.256373 0.278709 0.292144 0.29775 0.298583 0.296738 0.294567 0.289584
          0.282503 0.290689 0.296779 0.29942 0.300269 0.299646 0.298509 0.296233 0.293722 0.296586 0.299148 0.300299
          0.294959 0.289632 0.280764 0.27701 0.283383 0.29167 0.297035 0.299364 0.29122 0.283259 0.269628 0.255422
          0.264992 0.282546 0.293295 0.297921 0.283221 0.268467 0.245833 0.223415 0.229698 0.265845 0.286966 0.295664
          0.274695 0.247428 0.223499 0.219595 0.222495 0.259543 0.2844 0.294804 0.285988 0.273221 0.256974 0.241424
          0.222481 0.256746 0.283264 0.294565 0.294517 0.289062 0.279865 0.26235 0.228309 0.266596 0.288045 0.296369
          0.298723 0.296663 0.292394 0.283741 0.270087 0.285201 0.294802 0.298693 0.300182 0.299401 0.297558 0.293908
          0.28944 0.29438 0.298269 0.299926 0.290595 0.280713 0.263248 0.271207 0.281683 0.289613 0.295646 0.298594
          0.287843 0.278128 0.26032 0.252507 0.267242 0.279405 0.290771 0.296543 0.281061 0.265052 0.231083 0.223463
          0.243399 0.261733 0.283082 0.293625 0.282215 0.264235 0.229544 0.222629 0.240242 0.266411 0.285219 0.294386
          0.290469 0.281335 0.263474 0.240213 0.225142 0.262648 0.28568 0.295152 0.29638 0.292321 0.284067 0.27145
          0.259445 0.278641 0.291604 0.297284 0.299274 0.29771 0.294266 0.288588 0.283055 0.290625 0.296524 0.299154
          0.300285 0.299685 0.298266 0.295849 0.293679 0.296436 0.29894 0.30008 0.282149 0.262849 0.227293 0.256915
          0.27475 0.284937 0.293505 0.297673 0.278343 0.26637 0.243484 0.243989 0.254844 0.26706 0.285574 0.294576
          0.266423 0.254757 0.222739 0.223009 0.222774 0.23018 0.271253 0.289957 0.280589 0.271733 0.249927 0.223612
          0.243211 0.262459 0.283388 0.293648 0.291479 0.286215 0.274597 0.258485 0.259683 0.277696 0.290535 0.296547
          0.297231 0.294733 0.289419 0.28211 0.280007 0.288762 0.295456 0.298574 0.29961 0.298652 0.296566 0.293622
          0.292175 0.295547 0.298446 0.299795 0.300357 0.300001 0.299193 0.298008 0.29732 0.298559 0.299758 0.300324
          0.275629 0.254968 0.222721 0.253927 0.275961 0.287594 0.294792 0.298147 0.262914 0.249619 0.221742 0.241943
          0.263072 0.277435 0.289726 0.295994 0.23275 0.247573 0.236668 0.223217 0.240924 0.26081 0.282394 0.293238
          0.268802 0.270883 0.262333 0.248303 0.258147 0.274973 0.288671 0.295575 0.28887 0.287202 0.281651 0.274083
          0.276675 0.286633 0.294286 0.297961 0.296968 0.295689 0.292922 0.289574 0.289769 0.294219 0.297775 0.299437
          0.299631 0.299106 0.29804 0.296769 0.296589 0.298166 0.299528 0.300163 0.300335 0.300146 0.299756 0.299275
          0.29914 0.29968 0.300192 0.300434 0.278122 0.26391 0.245655 0.263642 0.276931 0.287926 0.295228 0.298424
          0.265913 0.244424 0.221341 0.242398 0.256295 0.275043 0.289941 0.296494 0.251708 0.224147 0.222819 0.222899
          0.221789 0.248286 0.280791 0.293786 0.274963 0.261389 0.254402 0.249538 0.233832 0.268301 0.288087 0.295997
          0.290133 0.285029 0.280328 0.276469 0.271842 0.286177 0.294855 0.29838 0.297182 0.295505 0.293426 0.291612
          0.290909 0.295364 0.298424 0.299701 0.299631 0.299154 0.298456 0.297828 0.297768 0.298947 0.299853 0.300245
          0.300274 0.300136 0.299914 0.299704 0.299697 0.300019 0.300292 0.300415 0.277021 0.259718 0.251778 0.266943
          0.278885 0.289618 0.296087 0.298765 0.261718 0.226973 0.222133 0.244093 0.259408 0.279897 0.29225 0.297381
          0.269798 0.248093 0.221434 0.223643 0.225404 0.263784 0.286656 0.295625 0.28378 0.27283 0.257024 0.25212
          0.248884 0.276186 0.291055 0.296995 0.293333 0.288775 0.282116 0.278641 0.278613 0.289338 0.296011 0.298749
          0.298046 0.296505 0.294209 0.292734 0.293025 0.296436 0.298796 0.299781 0.299765 0.29934 0.298686 0.298219
          0.298343 0.299242 0.299918 0.300207 0.30023 0.300115 0.299931 0.29979 0.299827 0.300062 0.300253 0.300337
          0.286587 0.27723 0.268984 0.27108 0.282426 0.291637 0.296922 0.299035 0.279214 0.261616 0.246985 0.249405
          0.269676 0.28541 0.294438 0.298109 0.280187 0.259702 0.224326 0.223676 0.252259 0.277286 0.291371 0.297017
          0.289046 0.278784 0.260426 0.255013 0.267805 0.283396 0.293304 0.297583 0.295473 0.291247 0.283939 0.280332
          0.284266 0.291514 0.29656 0.298798 0.298668 0.297246 0.294808 0.29323 0.294123 0.296779 0.29878 0.299676
          0.299847 0.299453 0.298768 0.298246 0.298403 0.299176 0.299803 0.300089 0.300171 0.300064 0.299872 0.29971
          0.299732 0.299948 0.300138 0.300226 0.292862 0.28676 0.276404 0.26335 0.279569 0.291031 0.296816 0.298964
          0.288983 0.278052 0.257893 0.228469 0.262956 0.284196 0.294304 0.298043 0.286828 0.269498 0.233332 0.223718
          0.250741 0.276816 0.291171 0.29683 0.292323 0.283504 0.266299 0.253624 0.257394 0.278134 0.291206 0.296726
          0.29672 0.292978 0.285801 0.279035 0.278642 0.288146 0.295002 0.298083 0.298977 0.297653 0.295066 0.292334
          0.291735 0.29517 0.297972 0.299267 0.29984 0.299452 0.29867 0.297789 0.297535 0.298534 0.299443 0.299873
          0.300089 0.299976 0.299743 0.29947 0.299383 0.299664 0.299946 0.300083 0.295614 0.291297 0.283285 0.274167
          0.281948 0.291164 0.296618 0.298786 0.293191 0.285841 0.271442 0.252102 0.264696 0.283035 0.293515 0.297645
          0.291163 0.279817 0.255724 0.223885 0.231799 0.268162 0.288181 0.295784 0.294242 0.287288 0.272691 0.250049
          0.224694 0.262742 0.285918 0.29498 0.297304 0.293964 0.286791 0.275632 0.263821 0.28088 0.292154 0.296976
          0.29905 0.297756 0.294889 0.290535 0.286749 0.292381 0.296768 0.298732 0.29977 0.299364 0.298442 0.297076
          0.296102 0.297609 0.298984 0.299624 0.29999 0.299865 0.299579 0.299167 0.298917 0.299316 0.299731 0.299933
        </DataArray>
        <DataArray type="Float32" Name="process rank" NumberOfComponents="1" format="ascii">
          0 0 0 0 0 0 0 0 0 0 0 0
          0 0 0 0 0 0 0 0 0 0 0 0
          0 0 0 0 0 0 0 0 0 0 0 0
          0 0 0 0 0 0 0 0 0 0 0 0
          0 0 0 0 0 0 0 0 0 0 0 0
          0 0 0 0 0 0 0 0 0 0 0 0
          0 0 0 0 0 0 0 0 0 0 0 0
          0 0 0 0 0 0 0 0 0 0 0 0
          0 0 0 0 0 0 0 0 0 0 0 0
          0 0 0 0 0 0 0 0 0 0 0 0
          0 0 0 0 0 0 0 0 0 0 0 0
          0 0 0 0 0 0 0 0 0 0 0 0
          0 0 0 0 0 0 0 0 0 0 0 0
          0 0 0 0 0 0 0 0 0 0 0 0
          0 0 0 0 0 0 0 0 0 0 0 0
          0 0 0 0 0 0 0 0 0 0 0 0
          0 0 0 0 0 0 0 0 0 0 0 0
          0 0 0 0 0 0 0 0 0 0 0 0
          0 0 0 0 0 0 0 0 0 0 0 0
          0 0 0 0 0 0 0 0 0 0 0 0
          0 0 0 0 0 0 0 0 0 0 0 0
          0 0 0 0 0 0 0 0 0 0 0 0
          0 0 0 0 0 0 0 0 0 0 0 0
          0 0 0 0 0 0 0 0 0 0 0 0
          0 0 0 0 0 0 0 0 0 0 0 0
          0 0 0 0 0 0 0 0 0 0 0 0
          0 0 0 0 0 0 0 0 0 0 0 0
          0 0 0 0 0 0 0 0 0 0 0 0
          0 0 0 0 0 0 0 0 0 0 0 0
          0 0 0 0 0 0 0 0 0 0 0 0
          0 0 0 0 0 0 0 0 0 0 0 0
          0 0 0 0 0 0 0 0 0 0 0 0
          0 0 0 0 0 0 0 0 0 0 0 0
          0 0 0 0 0 0 0 0 0 0 0 0
          0 0 0 0 0 0 0 0 0 0 0 0
          0 0 0 0 0 0 0 0 0 0 0 0
          0 0 0 0 0 0 0 0 0 0 0 0
          0 0 0 0 0 0 0 0 0 0 0 0
          0 0 0 0 0 0 0 0 0 0 0 0
          0 0 0 0 0 0 0 0 0 0 0 0
          0 0 0 0 0 0 0 0 0 0 0 0
          0 0 0 0 0 0 0 0 0 0 0 0
          0 0 0 0 0 0 0 0 0 0 0 0
          0 0 0 0 0 0 0 0 0 0 0 0
          0 0 0 0 0 0 0 0 0 0 0 0
          0 0 0 0 0 0 0 0 0 0 0 0
          0 0 0 0 0 0 0 0 0 0 0 0
          0 0 0 0 0 0 0 0 0 0 0 0
          0 0 0 0 0 0 0 0 0 0 0 0
          0 0 0 0 0 0 0 0 0 0 0 0
          0 0 0 0 0 0 0 0 0 0 0 0
          0 0 0 0 0 0 0 0 0 0 0 0
          0 0 0 0 0 0 0 0 0 0 0 0
          0 0 0 0 0 0 0 0 0 0 0 0
          0 0 0 0 0 0 0 0 0 0 0 0
          0 0 0 0 0 0 0 0 0 0 0 0
          0 0 0 0 0 0 0 0 0 0 0 0
          0 0 0 0 0 0 0 0 0 0 0 0
          0 0 0 0 0 0 0 0 0 0 0 0
          0 0 0 0 0 0 0 0 0 0 0 0
          0 0 0 0 0 0 0 0 0 0 0 0
          0 0 0 0 0 0 0 0 0 0 0 0
          0 0 0 0 0 0 0 0 0 0 0 0
          0 0 0 0 0 0 0 0 0 0 0 0
          0 0 0 0 0 0 0 0 0 0 0 0
          0 0 0 0 0 0 0 0 0 0 0 0
          0 0 0 0 0 0 0 0 0 0 0 0
          0 0 0 0 0 0 0 0 0 0 0 0
          0 0 0 0 0 0 0 0 0 0 0 0
          0 0 0 0 0 0 0 0 0 0 0 0
          0 0 0 0 0 0 0 0 0 0 0 0
          0 0 0 0 0 0 0 0 0 0 0 0
          0 0 0 0 0 0 0 0 0 0 0 0
          0 0 0 0 0 0 0 0 0 0 0 0
          0 0 0 0 0 0 0 0 0 0 0 0
          0 0 0 0 0 0 0 0 0 0 0 0
          0 0 0 0 0 0 0 0 0 0 0 0
          0 0 0 0 0 0 0 0 0 0 0 0
          0 0 0 0 0 0 0 0 0 0 0 0
          0 0 0 0 0 0 0 0 0 0 0 0
        </DataArray>
      </CellData>
      <Points>
        <DataArray type="Float32" Name="Coordinates" NumberOfComponents="3" format="ascii">
          -0.04 -0.04 -0.15 -0.03 -0.04 -0.15 -0.04 -0.03 -0.15 -0.03 -0.03 -0.15
          -0.04 -0.04 -0.14 -0.03 -0.04 -0.14 -0.04 -0.03 -0.14 -0.03 -0.03 -0.14
          -0.02 -0.04 -0.15 -0.02 -0.03 -0.15 -0.02 -0.04 -0.14 -0.02 -0.03 -0.14
          -0.01 -0.04 -0.15 -0.01 -0.03 -0.15 -0.01 -0.04 -0.14 -0.01 -0.03 -0.14
          0 -0.04 -0.15 0 -0.03 -0.15 0 -0.04 -0.14 0 -0.03 -0.14
          0.01 -0.04 -0.15 0.01 -0.03 -0.15 0.01 -0.04 -0.14 0.01 -0.03 -0.14
          0.02 -0.04 -0.15 0.02 -0.03 -0.15 0.02 -0.04 -0.14 0.02 -0.03 -0.14
          0.03 -0.04 -0.15 0.03 -0.03 -0.15 0.03 -0.04 -0.14 0.03 -0.03 -0.14
          0.04 -0.04 -0.15 0.04 -0.03 -0.15 0.04 -0.04 -0.14 0.04 -0.03 -0.14
          -0.04 -0.02 -0.15 -0.03 -0.02 -0.15 -0.04 -0.02 -0.14 -0.03 -0.02 -0.14
          -0.02 -0.02 -0.15 -0.02 -0.02 -0.14 -0.01 -0.02 -0.15 -0.01 -0.02 -0.14
          0 -0.02 -0.15 0 -0.02 -0.14 0.01 -0.02 -0.15 0.01 -0.02 -0.14
          0.02 -0.02 -0.15 0.02 -0.02 -0.14 0.03 -0.02 -0.15 0.03 -0.02 -0.14
          0.04 -0.02 -0.15 0.04 -0.02 -0.14 -0.04 -0.01 -0.15 -0.03 -0.01 -0.15
          -0.04 -0.01 -0.14 -0.03 -0.01 -0.14 -0.02 -0.01 -0.15 -0.02 -0.01 -0.14
          -0.01 -0.01 -0.15 -0.01 -0.01 -0.14 0 -0.01 -0.15 0 -0.01 -0.14
          0.01 -0.01 -0.15 0.01 -0.01 -0.14 0.02 -0.01 -0.15 0.02 -0.01 -0.14
          0.03 -0.01 -0.15 0.03 -0.01 -0.14 0.04 -0.01 -0.15 0.04 -0.01 -0.14
          -0.04 0 -0.15 -0.03 0 -0.15 -0.04 0 -0.14 -0.03 0 -0.14
          -0.02 0 -0.15 -0.02 0 -0.14 -0.01 0 -0.15 -0.01 0 -0.14
          0 0 -0.15 0 0 -0.14 0.01 0 -0.15 0.01 0 -0.14
          0.02 0 -0.15 0.02 0 -0.14 0.03 0 -0.15 0.03 0 -0.14
          0.04 0 -0.15 0.04 0 -0.14 -0.04 0.01 -0.15 -0.03 0.01 -0.15
          -0.04 0.01 -0.14 -0.03 0.01 -0.14 -0.02 0.01 -0.15 -0.02 0.01 -0.14
          -0.01 0.01 -0.15 -0.01 0.01 -0.14 0 0.01 -0.15 0 0.01 -0.14
          0.01 0.01 -0.15 0.01 0.01 -0.14 0.02 0.01 -0.15 0.02 0.01 -0.14
          0.03 0.01 -0.15 0.03 0.01 -0.14 0.04 0.01 -0.15 0.04 0.01 -0.14
          -0.04 0.02 -0.15 -0.03 0.02 -0.15 -0.04 0.02 -0.14 -0.03 0.02 -0.14
          -0.02 0.02 -0.15 -0.02 0.02 -0.14 -0.01 0.02 -0.15 -0.01 0.02 -0.14
          0 0.02 -0.15 0 0.02 -0.14 0.01 0.02 -0.15 0.01 0.02 -0.14
          0.02 0.02 -0.15 0.02 0.02 -0.14 0.03 0.02 -0.15 0.03 0.02 -0.14
          0.04 0.02 -0.15 0.04 0.02 -0.14 -0.04 0.03 -0.15 -0.03 0.03 -0.15
          -0.04 0.03 -0.14 -0.03 0.03 -0.14 -0.02 0.03 -0.15 -0.02 0.03 -0.14
          -0.01 0.03 -0.15 -0.01 0.03 -0.14 0 0.03 -0.15 0 0.03 -0.14
          0.01 0.03 -0.15 0.01 0.03 -0.14 0.02 0.03 -0.15 0.02 0.03 -0.14
          0.03 0.03 -0.15 0.03 0.03 -0.14 0.04 0.03 -0.15 0.04 0.03 -0.14
          -0.04 0.04 -0.15 -0.03 0.04 -0.15 -0.04 0.04 -0.14 -0.03 0.04 -0.14
          -0.02 0.04 -0.15 -0.02 0.04 -0.14 -0.01 0.04 -0.15 -0.01 0.04 -0.14
          0 0.04 -0.15 0 0.04 -0.14 0.01 0.04 -0.15 0.01 0.04 -0.14
          0.02 0.04 -0.15 0.02 0.04 -0.14 0.03 0.04 -0.15 0.03 0.04 -0.14
          0.04 0.04 -0.15 0.04 0.04 -0.14 -0.04 -0.04 -0.13 -0.03 -0.04 -0.13
          -0.04 -0.03 -0.13 -0.03 -0.03 -0.13 -0.02 -0.04 -0.13 -0.02 -0.03 -0.13
          -0.01 -0.04 -0.13 -0.01 -0.03 -0.13 0 -0.04 -0.13 0 -0.03 -0.13
          0.01 -0.04 -0.13 0.01 -0.03 -0.13 0.02 -0.04 -0.13 0.02 -0.03 -0.13
          0.03 -0.04 -0.13 0.03 -0.03 -0.13 0.04 -0.04 -0.13 0.04 -0.03 -0.13
          -0.04 -0.02 -0.13 -0.03 -0.02 -0.13 -0.02 -0.02 -0.13 -0.01 -0.02 -0.13
          0 -0.02 -0.13 0.01 -0.02 -0.13 0.02 -0.02 -0.13 0.03 -0.02 -0.13
          0.04 -0.02 -0.13 -0.04 -0.01 -0.13 -0.03 -0.01 -0.13 -0.02 -0.01 -0.13
          -0.01 -0.01 -0.13 0 -0.01 -0.13 0.01 -0.01 -0.13 0.02 -0.01 -0.13
          0.03 -0.01 -0.13 0.04 -0.01 -0.13 -0.04 0 -0.13 -0.03 0 -0.13
          -0.02 0 -0.13 -0.01 0 -0.13 0 0 -0.13 0.01 0 -0.13
          0.02 0 -0.13 0.03 0 -0.13 0.04 0 -0.13 -0.04 0.01 -0.13
          -0.03 0.01 -0.13 -0.02 0.01 -0.13 -0.01 0.01 -0.13 0 0.01 -0.13
          0.01 0.01 -0.13 0.02 0.01 -0.13 0.03 0.01 -0.13 0.04 0.01 -0.13
          -0.04 0.02 -0.13 -0.03 0.02 -0.13 -0.02 0.02 -0.13 -0.01 0.02 -0.13
          0 0.02 -0.13 0.01 0.02 -0.13 0.02 0.02 -0.13 0.03 0.02 -0.13
          0.04 0.02 -0.13 -0.04 0.03 -0.13 -0.03 0.03 -0.13 -0.02 0.03 -0.13
          -0.01 0.03 -0.13 0 0.03 -0.13 0.01 0.03 -0.13 0.02 0.03 -0.13
          0.03 0.03 -0.13 0.04 0.03 -0.13 -0.04 0.04 -0.13 -0.03 0.04 -0.13
          -0.02 0.04 -0.13 -0.01 0.04 -0.13 0 0.04 -0.13 0.01 0.04 -0.13
          0.02 0.04 -0.13 0.03 0.04 -0.13 0.04 0.04 -0.13 -0.04 -0.04 -0.12
          -0.03 -0.04 -0.12 -0.04 -0.03 -0.12 -0.03 -0.03 -0.12 -0.02 -0.04 -0.12
          -0.02 -0.03 -0.12 -0.01 -0.04 -0.12 -0.01 -0.03 -0.12 0 -0.04 -0.12
          0 -0.03 -0.12 0.01 -0.04 -0.12 0.01 -0.03 -0.12 0.02 -0.04 -0.12
          0.02 -0.03 -0.12 0.03 -0.04 -0.12 0.03 -0.03 -0.12 0.04 -0.04 -0.12
          0.04 -0.03 -0.12 -0.04 -0.02 -0.12 -0.03 -0.02 -0.12 -0.02 -0.02 -0.12
          -0.01 -0.02 -0.12 0 -0.02 -0.12 0.01 -0.02 -0.12 0.02 -0.02 -0.12
          0.03 -0.02 -0.12 0.04 -0.02 -0.12 -0.04 -0.01 -0.12 -0.03 -0.01 -0.12
          -0.02 -0.01 -0.12 -0.01 -0.01 -0.12 0 -0.01 -0.12 0.01 -0.01 -0.12
          0.02 -0.01 -0.12 0.03 -0.01 -0.12 0.04 -0.01 -0.12 -0.04 0 -0.12
          -0.03 0 -0.12 -0.02 0 -0.12 -0.01 0 -0.12 0 0 -0.12
          0.01 0 -0.12 0.02 0 -0.12 0.03 0 -0.12 0.04 0 -0.12
          -0.04 0.01 -0.12 -0.03 0.01 -0.12 -0.02 0.01 -0.12 -0.01 0.01 -0.12
          0 0.01 -0.12 0.01 0.01 -0.12 0.02 0.01 -0.12 0.03 0.01 -0.12
          0.04 0.01 -0.12 -0.04 0.02 -0.12 -0.03 0.02 -0.12 -0.02 0.02 -0.12
          -0.01 0.02 -0.12 0 0.02 -0.12 0.01 0.02 -0.12 0.02 0.02 -0.12
          0.03 0.02 -0.12 0.04 0.02 -0.12 -0.04 0.03 -0.12 -0.03 0.03 -0.12
          -0.02 0.03 -0.12 -0.01 0.03 -0.12 0 0.03 -0.12 0.01 0.03 -0.12
          0.02 0.03 -0.12 0.03 0.03 -0.12 0.04 0.03 -0.12 -0.04 0.04 -0.12
          -0.03 0.04 -0.12 -0.02 0.04 -0.12 -0.01 0.04 -0.12 0 0.04 -0.12
          0.01 0.04 -0.12 0.02 0.04 -0.12 0.03 0.04 -0.12 0.04 0.04 -0.12
          -0.04 -0.04 -0.11 -0.03 -0.04 -0.11 -0.04 -0.03 -0.11 -0.03 -0.03 -0.11
          -0.02 -0.04 -0.11 -0.02 -0.03 -0.11 -0.01 -0.04 -0.11 -0.01 -0.03 -0.11
          0 -0.04 -0.11 0 -0.03 -0.11 0.01 -0.04 -0.11 0.01 -0.03 -0.11
          0.02 -0.04 -0.11 0.02 -0.03 -0.11 0.03 -0.04 -0.11 0.03 -0.03 -0.11
          0.04 -0.04 -0.11 0.04 -0.03 -0.11 -0.04 -0.02 -0.11 -0.03 -0.02 -0.11
          -0.02 -0.02 -0.11 -0.01 -0.02 -0.11 0 -0.02 -0.11 0.01 -0.02 -0.11
          0.02 -0.02 -0.11 0.03 -0.02 -0.11 0.04 -0.02 -0.11 -0.04 -0.01 -0.11
          -0.03 -0.01 -0.11 -0.02 -0.01 -0.11 -0.01 -0.01 -0.11 0 -0.01 -0.11
          0.01 -0.01 -0.11 0.02 -0.01 -0.11 0.03 -0.01 -0.11 0.04 -0.01 -0.11
          -0.04 0 -0.11 -0.03 0 -0.11 -0.02 0 -0.11 -0.01 0 -0.11
          0 0 -0.11 0.01 0 -0.11 0.02 0 -0.11 0.03 0 -0.11
          0.04 0 -0.11 -0.04 0.01 -0.11 -0.03 0.01 -0.11 -0.02 0.01 -0.11
          -0.01 0.01 -0.11 0 0.01 -0.11 0.01 0.01 -0.11 0.02 0.01 -0.11
          0.03 0.01 -0.11 0.04 0.01 -0.11 -0.04 0.02 -0.11 -0.03 0.02 -0.11
          -0.02 0.02 -0.11 -0.01 0.02 -0.11 0 0.02 -0.11 0.01 0.02 -0.11
          0.02 0.02 -0.11 0.03 0.02 -0.11 0.04 0.02 -0.11 -0.04 0.03 -0.11
          -0.03 0.03 -0.11 -0.02 0.03 -0.11 -0.01 0.03 -0.11 0 0.03 -0.11
          0.01 0.03 -0.11 0.02 0.03 -0.11 0.03 0.03 -0.11 0.04 0.03 -0.11
          -0.04 0.04 -0.11 -0.03 0.04 -0.11 -0.02 0.04 -0.11 -0.01 0.04 -0.11
          0 0.04 -0.11 0.01 0.04 -0.11 0.02 0.04 -0.11 0.03 0.04 -0.11
          0.04 0.04 -0.11 -0.04 -0.04 -0.1 -0.03 -0.04 -0.1 -0.04 -0.03 -0.1
          -0.03 -0.03 -0.1 -0.02 -0.04 -0.1 -0.02 -0.03 -0.1 -0.01 -0.04 -0.1
          -0.01 -0.03 -0.1 0 -0.04 -0.1 0 -0.03 -0.1 0.01 -0.04 -0.1
          0.01 -0.03 -0.1 0.02 -0.04 -0.1 0.02 -0.03 -0.1 0.03 -0.04 -0.1
          0.03 -0.03 -0.1 0.04 -0.04 -0.1 0.04 -0.03 -0.1 -0.04 -0.02 -0.1
          -0.03 -0.02 -0.1 -0.02 -0.02 -0.1 -0.01 -0.02 -0.1 0 -0.02 -0.1
          0.01 -0.02 -0.1 0.02 -0.02 -0.1 0.03 -0.02 -0.1 0.04 -0.02 -0.1
          -0.04 -0.01 -0.1 -0.03 -0.01 -0.1 -0.02 -0.01 -0.1 -0.01 -0.01 -0.1
          0 -0.01 -0.1 0.01 -0.01 -0.1 0.02 -0.01 -0.1 0.03 -0.01 -0.1
          0.04 -0.01 -0.1 -0.04 0 -0.1 -0.03 0 -0.1 -0.02 0 -0.1
          -0.01 0 -0.1 0 0 -0.1 0.01 0 -0.1 0.02 0 -0.1
          0.03 0 -0.1 0.04 0 -0.1 -0.04 0.01 -0.1 -0.03 0.01 -0.1
          -0.02 0.01 -0.1 -0.01 0.01 -0.1 0 0.01 -0.1 0.01 0.01 -0.1
          0.02 0.01 -0.1 0.03 0.01 -0.1 0.04 0.01 -0.1 -0.04 0.02 -0.1
          -0.03 0.02 -0.1 -0.02 0.02 -0.1 -0.01 0.02 -0.1 0 0.02 -0.1
          0.01 0.02 -0.1 0.02 0.02 -0.1 0.03 0.02 -0.1 0.04 0.02 -0.1
          -0.04 0.03 -0.1 -0.03 0.03 -0.1 -0.02 0.03 -0.1 -0.01 0.03 -0.1