<?xml version="1.0"?>
<VTKFile type="UnstructuredGrid" version="0.1" byte_order="LittleEndian">
  <UnstructuredGrid>
    <Piece NumberOfCells="960" NumberOfPoints="1296">
      <CellData Scalars="p (Pa)">
        <DataArray type="Float32" Name="p (Pa)" NumberOfComponents="1" format="ascii">
          36604.1 36525.6 36377.1 36211.5 36129.7 36176 36312.7 36420.8 36574.8 36468.5 36263.3 36026.7
          35904.6 35959.5 36152.1 36305.2 36548.2 36416 36155.4 35842.8 35668.9 35714 35962.1 36163.8
          36557.9 36437.8 36204.8 35926.7 35749.4 35743.7 35949.2 36135.1 36588.1 36498.3 36328.7 36136.3
          36020.8 36012.1 36132.4 36253.8 36621.5 36561.9 36453.8 36341.7 36290.9 36298.2 36361.7 36425.7
          36650.1 36615.1 36554.2 36497.7 36482.1 36496.2 36529.3 36559.5 36666.7 36645.2 36609.3 36579.2
          36576.2 36589.8 36609.6 36625.2 36386.6 36202.9 35850.4 35448.9 35256 35372.1 35708 35966.1
          36314.3 36057.8 35549 34937 34636.9 34784.5 35295.8 35681.4 36245 35915.2 35236.6 34361.4
          33910.5 34035.1 34767.9 35313.2 36264.5 35967.9 35378.5 34647.9 34184.2 34104.1 34701.6 35212.8
          36330.3 36103.9 35671.8 35176.5 34906.2 34862.7 35174.8 35496.9 36406.4 36250.7 35964.8 35670.2
          35574.4 35602.5 35760.4 35924.4 36477.4 36383.8 36219.8 36070.1 36050 36097.2 36181 36257.2
          36520.2 36462.3 36365.2 36285.6 36287.5 36330 36381.1 36420.8 35997 35550.2 34671.8 33628.4
          33145.2 33456.8 34342.6 34992.8 35810.1 35158.8 33804.2 32031.7 31234.4 31673.1 33200.8 34252.6
          35618.5 34737.5 32771.4 29794.8 28503.3 28893.7 31553.5 33218.1 35658 34881.2 33271.2 31114.1
          29757.7 29072.7 31225.1 32843.3 35802.3 35194.6 33999.9 32573.2 31946.1 31715.1 32601.9 33574.1
          35982.8 35546.2 34718.6 33834.5 33732.6 33851.5 34264.1 34726.9 36168.6 35903 35427 34986.4
          35010.1 35179.4 35402.2 35608.9 36285.1 36121.5 35842.9 35614.9 35654 35792.4 35932 36038.2
          35396.5 34476.6 32594.1 30179.9 29114.9 29850.6 31931.2 33350.1 34984.8 33560.5 30342.2 25361.4
          23466.2 24668.3 29091.8 31677.7 34524.9 32436.5 26971.6 15032.8 11769 12884.1 24127.7 29060.6
          34584.4 32805.6 28823.3 22597.5 18805.5 13267.9 22556.4 27757.2 34836.3 33387.4 30334.3 26212.1
          25341.8 24209.4 26435.1 29443.8 35199.1 34105.4 31856.5 29061.1 29684.6 30185.4 31079.6 32325.5
          35624.9 34964.7 33716.6 32460.5 32840.5 33393.1 33899 34405.2 35899.7 35501.7 34801.8 34207
          34411.3 34806.8 35134.7 35383 34673.9 33151 29871.2 25154.2 23192 24596.9 28693.2 31224.2
          33942.5 31413.3 24955 11379.6 7748.01 10509.9 22715 28107.9 33039 28873.5 14317.4 -62388.8
          -62832 -62671 8428.9 22385.1 33063.8 29638.8 21001.3 3195.7 -6558.44 -62652.3 181.436 18098.9
          33368.1 30337.5 22946.6 9141.21 12265.1 7551.03 10236.6 21419.8 33975.1 31556 25635.7 14517
          21565.8 23790.9 24937.6 28305.2 34809.9 33415.6 30492.6 26852.3 28954.1 30585 31499.8 32615.5
          35352.8 34552 33060.6 31656.4 32392.4 33354 33994.3 34487.6 34046.8 32130.1 28055.9 22236.3
          19506.1 21123.2 26063.1 29274.3 33063 29895.1 22072.1 6664.74 1945.55 5551.98 18432 25094.8
          31777.5 26502.4 9474.48 -62913.9 -63199.3 -63025.4 -2807.18 16162.7 31535.8 26449.9 12921 -17376.1
          -23954.2 -34829.9 -62945.4 3390.82 31733 26368.7 9262.51 -62796.5 -7747.17 -5436.88 -62427.2 7820.5
          32603.8 28095 12855.1 -62333.6 6645.51 16937.5 14360.4 23600.1 33957.8 31601.6 25813.2 15077.4
          23593.9 27678.9 28857.6 30949.3 34812.6 33556.5 31027.2 28194.7 30090.4 31945.3 32956.9 33743.3
          33476.6 31325.4 26902.2 20716.8 16865.8 17596.7 23385.9 27259.6 32292.7 28777.8 20566 5517.16
          224.072 6882.84 16886.7 23281.7 30733.9 24818.8 6934 -62957.7 -63212.5 -24006.1 -1302.9 14792.4
          30430 24120.6 5219.07 -63110.6 -63307.9 -63224.9 -62857.6 3602.02 30889.6 24695.9 5354.39 -63164.7
          -21789.1 -5318.12 -1434.44 15371.5 32106.7 27228.9 11215.8 -62536.3 2789.67 16643.5 20866.8 25770.1
          33681.4 31176.3 25085.2 14036.9 22356.8 27361.8 29733.5 31464.9 34630.6 33307 30645.5 27663
          29556.9 31706.3 33041.1 33840.9 32776.8 30294.9 25402.6 18946.3 11191.1 3757.76 16884.7 23477.1
          31319.1 27228.3 18512.4 7965.34 -3435.19 -3671.81 12418.1 20074.5 29493.7 22484.3 3696.29 -18966.2
          -63224 -63106.1 -1136.01 13640.3 29886.6 23765.7 8362.37 -22637 -63350.8 -63088.5 -4697.56 13509.9
          31024.7 25615.4 8966.71 -62799.8 -62882 -2494.94 14022.6 21775.4 32618.2 29188.7 20606.4 3198.37
          8422.6 19741.1 25484.1 28618.5 34050.7 32268.6 28509.6 23600.2 25412.6 28938.2 31285.5 32599.5
          34843.6 33873.3 32050.6 30249.7 30951.2 32492.3 33670.4 34322.8 31974 28839.7 22422.9 14156.9
          -2063.04 -62895.5 2425.12 16836.9 30033.1 24121.1 9092.13 -1152.91 -11972.5 -21119.4 3446.48 12430.3
          27466.8 14171.1 -62450 -63146.3 -63318.4 -63135.2 -4933.51 2271.21 29305.5 22435.3 4395.96 -15631.8
          -63048.6 -12817.7 8244.01 14717.8 31514.6 27550.4 18508.1 3529.94 -1449.12 12588.5 20876.4 24478.1
          33320.2 31134.1 26624.2 20663 20535.3 25157.5 28624.2 30385.4 34543.2 33444.2 31361.4 29133.6
          29376.2 31154.7 32667.2 33486.8 35142.7 34549.7 33495 32532.7 32715 33567.8 34336.8 34761.8
          31745.5 28624.3 22297.2 12881.9 -4838.94 -63104.5 -4274.01 10614.9 29923.8 24677 13088.9 -2562.65
          -18903.4 -63182.1 -10637 -2610.05 27861.6 18799.8 -7710.36 -63090.4 -63231 -29671.2 -16023.3 -62867.5
          29577.5 23825.6 10659.8 -9331.6 -10962.3 2076.28 9081.94 5772.5 31979.8 28886.4 22641.6 14794.5
          14251 19418.5 23082.7 23895.7 33791.6 32259.8 29390.2 26294 26227.4 28350.1 30157.4 30947.1
          34859.3 34155.5 32902.4 31705.7 31741.6 32639.3 33482.8 33917.7 35327.5 34974.2 34367.3 33840
          33886 34328.6 34762.4 34998.8 31809.5 28656.6 22213.4 14376.9 3266.41 -14160.3 144.712 9916.67
          29896.1 23935.4 8654.72 -2697.44 -17004.9 -63223.2 -22534.9 -6840.56 27431.2 14113 -62499 -63272.5
          -63253.1 -63226.2 -63046.2 -62963.4 29474.4 22460.4 1317.15 -62835.4 -10387.2 -150.746 4553.38 5942.79
          32116.8 28913.9 21730.3 10671.7 16566.8 20741.4 23390.9 24441.2 33971.6 32603.1 29968.9 27069.9
          27930.2 29524.9 30793.9 31391.7 34972.6 34423.7 33447.9 32542.2 32693.2 33305.6 33864 34152.5
          35376.5 35133.2 34719.2 34369.3 34411.9 34685.5 34953.1 35097.8 32507.1 29979.5 24747.7 17059.2
          7635.69 -4078.5 452.59 13269.6 31176.9 27044.7 17507.2 1757.54 -13963.6 -63135.3 -62837.9 459.31
          29671.9 22715.1 1397.72 -62991.9 -63233.7 -63173.1 -14713.7 558.426 30673.7 25286.5 8812.87 -62654.9
          -8266.4 2066.15 12839.1 17682.8 32651.9 29932 23620.7 12391.4 18166.1 22123 25670.1 27490.8
          34184.7 33014.7 30704.5 27996.1 28842.5 30266.2 31596.1 32319.3 35027.7 34577.1 33763.1 32988.5
          33136.5 33643.6 34143.9 34423.5 35363.2 35176.6 34856.3 34583.8 34621.3 34828.1 35039.1 35158.4
          33155 31093 26641.7 19472.3 10591 9162.29 15124.2 21350.7 32291.8 29291.3 22408.9 9853.53
          -10563.3 -11862.8 2929.9 16546.6 31416.7 27226.2 16650.2 -6499.31 -63071.6 -62982.3 1996.51 16544.8
          31926.7 28392 19854 3481.38 160.893 5143.57 18297.4 24026.4 33253.4 31245.4 27030.4 21329.7
          21157.1 23704.2 27660.9 29845.3 34396 33474.7 31720.6 29824.4 29851.4 30926.2 32308.7 33131
          35055.2 34692.7 34043.4 33432.4 33455.1 33865 34352.8 34647.2 35321.9 35172.9 34916.5 34696.1
          34709.9 34878.7 35071.1 35186.4 33359.7 31339.3 26669 18143.8 5392.25 14320.5 22145.7 26553.6
          32630.3 29720.7 22340.5 4556.25 -62744.8 -4251.76 16013.7 24034.2 31897.3 28008.7 17686.9 -7187.28
          -63149.8 -62731.6 9308.41 22912.1 32229.7 28839.7 20391.8 3727.61 1052.82 7619.2 21581.1 27312.3
          33368.1 31423.2 27257.7 21549.5 21664.8 24747.6 28988.3 31261.8 34395.5 33504.7 31784.6 29917.2
          30049.6 31286.3 32770.7 33637.7 34997.7 34650.5 34022.1 33431.9 33489 33941.7 34457.8 34765.5
          35242.3 35101.7 34858 34649.9 34675.6 34854.6 35052.9 35170.8 33279.9 31198 26491.8 19000.7
          13681.1 19712.3 25773.6 29117.7 32469.3 29252.2 20980.2 3672.75 -7003.63 10749.2 22241.2 27508.7
          31527.4 26507 9813.81 -62898.8 -63061.6 -2742.78 19034.1 26624.8 31772 27082.4 11275.6 -62584
          -4117.58 14694 24778.9 29205 33073.8 30619.1 24550.6 13195.5 20012.9 25816.6 29945.9 32023.7
          34219.6 33171.4 31006 28390.3 29550.2 31426.9 33012.4 33869 34874.2 34484.2 33756.3 33057.9
          33298.9 33904.1 34466.5 34780.3 35135.8 34983 34714.8 34489.1 34556.5 34777.2 34992.3 35113.9
        </DataArray>
        <DataArray type="Float32" Name="saturation" NumberOfComponents="1" format="ascii">
          0.301454 0.301369 0.301208 0.30103 0.300942 0.300992 0.301139 0.301256 0.301423 0.301307 0.301086 0.300832
          0.300701 0.30076 0.300966 0.301131 0.301394 0.301251 0.30097 0.300635 0.30045 0.300498 0.300763 0.300979
          0.301404 0.301274 0.301023 0.300725 0.300536 0.30053 0.300749 0.300948 0.301437 0.30134 0.301156 0.300949
          0.300825 0.300816 0.300945 0.301076 0.301473 0.301409 0.301291 0.30117 0.301116 0.301123 0.301192 0.301261
          0.301504 0.301466 0.3014 0.301339 0.301322 0.301337 0.301373 0.301406 0.301522 0.301499 0.30146 0.301427
          0.301424 0.301439 0.30146 0.301477 0.301219 0.301021 0.300643 0.300217 0.300014 0.300136 0.300492 0.300767
          0.301141 0.300865 0.300323 0.299681 0.299369 0.299522 0.300056 0.300464 0.301066 0.300712 0.299994 0.299085
          0.298624 0.298751 0.299505 0.300074 0.301087 0.300769 0.300143 0.29938 0.298903 0.298821 0.299436 0.299969
          0.301158 0.300914 0.300453 0.299931 0.299648 0.299603 0.299929 0.300268 0.30124 0.301072 0.300766 0.300452
          0.30035 0.30038 0.300548 0.300722 0.301317 0.301216 0.301039 0.300878 0.300857 0.300907 0.300997 0.301079
          0.301363 0.301301 0.301196 0.30111 0.301112 0.301158 0.301213 0.301256 0.3008 0.300324 0.299405 0.298338
          0.297853 0.298165 0.299065 0.299739 0.3006 0.299912 0.298516 0.296755 0.295987 0.296408 0.297908 0.298973
          0.300397 0.299473 0.297481 0.294635 0.293459 0.293811 0.296293 0.297925 0.300439 0.299622 0.297979 0.295872
          0.294601 0.293974 0.295978 0.297552 0.300592 0.29995 0.298715 0.297285 0.296672 0.296449 0.297314 0.298283
          0.300785 0.30032 0.299453 0.298546 0.298443 0.298564 0.298985 0.299462 0.300984 0.300699 0.300194 0.299732
          0.299757 0.299934 0.300168 0.300387 0.301109 0.300933 0.300635 0.300393 0.300434 0.300582 0.30073 0.300844
          0.300162 0.299203 0.297306 0.294993 0.294012 0.294687 0.296658 0.298058 0.29973 0.298269 0.295144 0.290735
          0.289178 0.290158 0.293991 0.296412 0.299253 0.297151 0.292108 0.282931 0.280772 0.281495 0.289715 0.293963
          0.299314 0.297515 0.293748 0.288485 0.285598 0.281747 0.288452 0.292795 0.299576 0.298095 0.295137 0.291454
          0.290719 0.289781 0.291645 0.294312 0.299955 0.298822 0.296585 0.293963 0.294534 0.294998 0.29584 0.297042
          0.300404 0.299709 0.298427 0.297175 0.297549 0.298101 0.298612 0.29913 0.300696 0.300273 0.29954 0.298926
          0.299136 0.299545 0.299887 0.300148 0.299407 0.297858 0.294706 0.290562 0.288958 0.2901 0.29363 0.295977
          0.298656 0.296158 0.290396 0.280523 0.27828 0.279972 0.288578 0.293106 0.297747 0.293793 0.282447 0.251787
          0.25168 0.251719 0.27869 0.288317 0.297771 0.294491 0.287243 0.27566 0.270657 0.251723 0.274031 0.285084
          0.298076 0.29514 0.288762 0.279124 0.281092 0.278163 0.279801 0.287565 0.298689 0.296295 0.290966 0.282581
          0.287677 0.289441 0.290381 0.293282 0.299548 0.298123 0.295285 0.292005 0.293866 0.295372 0.296241 0.297327
          0.300116 0.299281 0.297768 0.296392 0.297108 0.298062 0.298709 0.299215 0.298762 0.296851 0.29306 0.2882
          0.286115 0.287336 0.291328 0.294157 0.297771 0.294728 0.288072 0.277638 0.274975 0.276991 0.285325 0.290512
          0.296509 0.291703 0.279328 0.25166 0.251591 0.251633 0.272491 0.28371 0.296276 0.291658 0.281519 0.265898
          0.263333 0.259536 0.251652 0.275768 0.296466 0.291588 0.279198 0.251688 0.270097 0.271194 0.251778 0.278323
          0.297315 0.293095 0.281476 0.2518 0.277627 0.284253 0.282476 0.289286 0.298672 0.296339 0.291115 0.282962
          0.289281 0.292726 0.293779 0.295716 0.299551 0.298265 0.29579 0.293183 0.294909 0.296671 0.297665 0.298454
          0.298185 0.296074 0.292048 0.287026 0.284203 0.284722 0.289114 0.292359 0.29701 0.293707 0.286911 0.276971
          0.274053 0.277766 0.284218 0.28903 0.295512 0.290283 0.277797 0.251649 0.251588 0.263313 0.273257 0.282768
          0.295226 0.289709 0.2768 0.251612 0.251565 0.251585 0.251673 0.275886 0.295659 0.290181 0.276877 0.251599
          0.264153 0.271252 0.273189 0.283163 0.296828 0.292332 0.280418 0.251751 0.275436 0.284046 0.28714 0.291079
          0.298391 0.295932 0.290504 0.282258 0.288295 0.292448 0.294579 0.296208 0.299362 0.298014 0.295429 0.292712
          0.294416 0.29644 0.297749 0.298553 0.297486 0.2951 0.29077 0.285701 0.280403 0.275973 0.284216 0.289187
          0.296068 0.292331 0.285384 0.27841 0.272177 0.272059 0.281191 0.28654 0.294358 0.288395 0.275939 0.265257
          0.251585 0.251614 0.273343 0.281994 0.29472 0.28942 0.27865 0.263829 0.251555 0.251618 0.271554 0.281907
          0.295787 0.290948 0.279017 0.251687 0.251668 0.272649 0.282249 0.28784 0.29733 0.294079 0.286942 0.275662
          0.278686 0.28629 0.290838 0.293563 0.298766 0.296986 0.293465 0.289286 0.290778 0.293852 0.296036 0.297311
          0.299583 0.298586 0.296774 0.295058 0.295718 0.297206 0.29838 0.299045 0.296699 0.293762 0.288347 0.282339
          0.272868 0.251664 0.275236 0.284182 0.294856 0.289709 0.279093 0.273335 0.268183 0.264411 0.275799 0.281199
          0.29254 0.282348 0.251772 0.251604 0.251562 0.251607 0.271439 0.275152 0.294186 0.288357 0.276332 0.266617
          0.251627 0.267814 0.278578 0.282717 0.296255 0.292613 0.285381 0.275846 0.273182 0.281302 0.287147 0.290002
          0.298028 0.295891 0.291808 0.286985 0.286888 0.290565 0.293568 0.295184 0.299272 0.298152 0.296109 0.294029
          0.29425 0.295911 0.297378 0.298195 0.299895 0.299279 0.298203 0.297246 0.297425 0.298277 0.299059 0.299498
          0.296478 0.293568 0.288248 0.281494 0.271485 0.251614 0.271761 0.280038 0.294755 0.290166 0.281629 0.272615
          0.265282 0.251595 0.268776 0.272591 0.292888 0.285594 0.270114 0.251617 0.251583 0.261274 0.266454 0.251671
          0.294435 0.289469 0.280067 0.269365 0.26863 0.275046 0.279087 0.277118 0.296705 0.293805 0.28852 0.282769
          0.282402 0.28605 0.288871 0.289526 0.298503 0.296978 0.294263 0.291524 0.291467 0.293322 0.294972 0.295714
          0.2996 0.298874 0.297611 0.29644 0.296474 0.29735 0.298191 0.298631 0.30009 0.299719 0.299091 0.298552
          0.298599 0.299051 0.299499 0.299745 0.29654 0.293597 0.288182 0.282487 0.275699 0.267237 0.274012 0.279602
          0.294729 0.289558 0.278827 0.272546 0.26605 0.251585 0.263868 0.270523 0.292509 0.282309 0.25176 0.251574
          0.251578 0.251585 0.251628 0.251648 0.29434 0.288377 0.274635 0.251679 0.268888 0.273856 0.276421 0.277217
          0.296838 0.29383 0.287805 0.280074 0.283992 0.287044 0.289118 0.289971 0.298686 0.297315 0.294796 0.292193
          0.292948 0.294387 0.295569 0.296138 0.299718 0.299149 0.298156 0.297255 0.297404 0.298013 0.298576 0.29887
          0.300141 0.299886 0.299454 0.299093 0.299137 0.299419 0.299697 0.299848 0.29722 0.294806 0.290224 0.28434
          0.278213 0.271858 0.274174 0.281749 0.295932 0.292171 0.284658 0.274873 0.267321 0.251607 0.251678 0.274178
          0.294522 0.288578 0.274679 0.251641 0.251583 0.251597 0.267003 0.27423 0.295455 0.290672 0.278923 0.251722
          0.269855 0.27504 0.281466 0.284784 0.297363 0.294762 0.289303 0.281174 0.285132 0.288111 0.290995 0.292561
          0.298903 0.297722 0.295484 0.293007 0.293765 0.295073 0.296334 0.297036 0.299775 0.299307 0.298474 0.297696
          0.297844 0.298353 0.298862 0.299148 0.300127 0.299931 0.299596 0.299314 0.299353 0.299567 0.299787 0.299912
          0.297862 0.295852 0.291823 0.28609 0.280023 0.279136 0.282994 0.287511 0.297009 0.294173 0.288336 0.279563
          0.268809 0.268232 0.275513 0.283978 0.296162 0.292329 0.284051 0.270685 0.251622 0.251643 0.275002 0.283977
          0.296653 0.29336 0.286374 0.275819 0.27402 0.276757 0.285227 0.289632 0.297961 0.295998 0.292159 0.287495
          0.287362 0.28937 0.292711 0.294682 0.29912 0.298183 0.296454 0.294663 0.294688 0.295694 0.297026 0.297838
          0.299804 0.299427 0.298759 0.29814 0.298163 0.298577 0.299076 0.299379 0.300084 0.299927 0.299659 0.29943
          0.299444 0.29962 0.29982 0.299941 0.298067 0.296087 0.291846 0.285116 0.276899 0.282449 0.288129 0.291747
          0.297342 0.294567 0.288282 0.276422 0.251701 0.271772 0.283606 0.289638 0.296625 0.293018 0.284787 0.270359
          0.251603 0.251704 0.279226 0.288735 0.296948 0.293762 0.286779 0.275956 0.274494 0.278203 0.287689 0.292405
          0.298076 0.296168 0.292357 0.287665 0.287754 0.290224 0.293897 0.296013 0.29912 0.298213 0.296516 0.294749
          0.294871 0.296037 0.29748 0.298347 0.299744 0.299383 0.298737 0.29814 0.298197 0.298655 0.299184 0.299502
          0.3 0.299853 0.299598 0.299382 0.299409 0.299595 0.299801 0.299925 0.297987 0.295952 0.291694 0.285741
          0.282021 0.286269 0.291082 0.294015 0.297183 0.294137 0.287227 0.275925 0.270446 0.280123 0.288204 0.292577
          0.296268 0.291707 0.279538 0.251664 0.251624 0.272524 0.285766 0.291808 0.296504 0.292204 0.280456 0.25174
          0.271838 0.282701 0.29025 0.294094 0.297781 0.295404 0.290061 0.2817 0.286494 0.291118 0.294775 0.296748
          0.298939 0.297879 0.29577 0.293358 0.29441 0.296171 0.29772 0.298582 0.299615 0.299211 0.298467 0.297765
          0.298006 0.298617 0.299193 0.299517 0.299888 0.299728 0.29945 0.299216 0.299286 0.299514 0.299738 0.299865
        </DataArray>
        <DataArray type="Float32" Name="process rank" NumberOfComponents="1" format="ascii">
          0 0 0 0 0 0 0 0 0 0 0 0
          0 0 0 0 0 0 0 0 0 0 0 0
          0 0 0 0 0 0 0 0 0 0 0 0
          0 0 0 0 0 0 0 0 0 0 0 0
          0 0 0 0 0 0 0 0 0 0 0 0
          0 0 0 0 0 0 0 0 0 0 0 0
          0 0 0 0 0 0 0 0 0 0 0 0
          0 0 0 0 0 0 0 0 0 0 0 0
          0 0 0 0 0 0 0 0 0 0 0 0
          0 0 0 0 0 0 0 0 0 0 0 0
          0 0 0 0 0 0 0 0 0 0 0 0
          0 0 0 0 0 0 0 0 0 0 0 0
          0 0 0 0 0 0 0 0 0 0 0 0
          0 0 0 0 0 0 0 0 0 0 0 0
          0 0 0 0 0 0 0 0 0 0 0 0
          0 0 0 0 0 0 0 0 0 0 0 0
          0 0 0 0 0 0 0 0 0 0 0 0
          0 0 0 0 0 0 0 0 0 0 0 0
          0 0 0 0 0 0 0 0 0 0 0 0
          0 0 0 0 0 0 0 0 0 0 0 0
          0 0 0 0 0 0 0 0 0 0 0 0
          0 0 0 0 0 0 0 0 0 0 0 0
          0 0 0 0 0 0 0 0 0 0 0 0
          0 0 0 0 0 0 0 0 0 0 0 0
          0 0 0 0 0 0 0 0 0 0 0 0
          0 0 0 0 0 0 0 0 0 0 0 0
          0 0 0 0 0 0 0 0 0 0 0 0
          0 0 0 0 0 0 0 0 0 0 0 0
          0 0 0 0 0 0 0 0 0 0 0 0
          0 0 0 0 0 0 0 0 0 0 0 0
          0 0 0 0 0 0 0 0 0 0 0 0
          0 0 0 0 0 0 0 0 0 0 0 0
          0 0 0 0 0 0 0 0 0 0 0 0
          0 0 0 0 0 0 0 0 0 0 0 0
          0 0 0 0 0 0 0 0 0 0 0 0
          0 0 0 0 0 0 0 0 0 0 0 0
          0 0 0 0 0 0 0 0 0 0 0 0
          0 0 0 0 0 0 0 0 0 0 0 0
          0 0 0 0 0 0 0 0 0 0 0 0
          0 0 0 0 0 0 0 0 0 0 0 0
          0 0 0 0 0 0 0 0 0 0 0 0
          0 0 0 0 0 0 0 0 0 0 0 0
          0 0 0 0 0 0 0 0 0 0 0 0
          0 0 0 0 0 0 0 0 0 0 0 0
          0 0 0 0 0 0 0 0 0 0 0 0
          0 0 0 0 0 0 0 0 0 0 0 0
          0 0 0 0 0 0 0 0 0 0 0 0
          0 0 0 0 0 0 0 0 0 0 0 0
          0 0 0 0 0 0 0 0 0 0 0 0
          0 0 0 0 0 0 0 0 0 0 0 0
          0 0 0 0 0 0 0 0 0 0 0 0
          0 0 0 0 0 0 0 0 0 0 0 0
          0 0 0 0 0 0 0 0 0 0 0 0
          0 0 0 0 0 0 0 0 0 0 0 0
          0 0 0 0 0 0 0 0 0 0 0 0
          0 0 0 0 0 0 0 0 0 0 0 0
          0 0 0 0 0 0 0 0 0 0 0 0
          0 0 0 0 0 0 0 0 0 0 0 0
          0 0 0 0 0 0 0 0 0 0 0 0
          0 0 0 0 0 0 0 0 0 0 0 0
          0 0 0 0 0 0 0 0 0 0 0 0
          0 0 0 0 0 0 0 0 0 0 0 0
          0 0 0 0 0 0 0 0 0 0 0 0
          0 0 0 0 0 0 0 0 0 0 0 0
          0 0 0 0 0 0 0 0 0 0 0 0
          0 0 0 0 0 0 0 0 0 0 0 0
          0 0 0 0 0 0 0 0 0 0 0 0
          0 0 0 0 0 0 0 0 0 0 0 0
          0 0 0 0 0 0 0 0 0 0 0 0
          0 0 0 0 0 0 0 0 0 0 0 0
          0 0 0 0 0 0 0 0 0 0 0 0
          0 0 0 0 0 0 0 0 0 0 0 0
          0 0 0 0 0 0 0 0 0 0 0 0
          0 0 0 0 0 0 0 0 0 0 0 0
          0 0 0 0 0 0 0 0 0 0 0 0
          0 0 0 0 0 0 0 0 0 0 0 0
          0 0 0 0 0 0 0 0 0 0 0 0
          0 0 0 0 0 0 0 0 0 0 0 0
          0 0 0 0 0 0 0 0 0 0 0 0
          0 0 0 0 0 0 0 0 0 0 0 0
        </DataArray>
      </CellData>
      <Points>
        <DataArray type="Float32" Name="Coordinates" NumberOfComponents="3" format="ascii">
          -0.04 -0.04 -0.15 -0.03 -0.04 -0.15 -0.04 -0.03 -0.15 -0.03 -0.03 -0.15
          -0.04 -0.04 -0.14 -0.03 -0.04 -0.14 -0.04 -0.03 -0.14 -0.03 -0.03 -0.14
          -0.02 -0.04 -0.15 -0.02 -0.03 -0.15 -0.02 -0.04 -0.14 -0.02 -0.03 -0.14
          -0.01 -0.04 -0.15 -0.01 -0.03 -0.15 -0.01 -0.04 -0.14 -0.01 -0.03 -0.14
          0 -0.04 -0.15 0 -0.03 -0.15 0 -0.04 -0.14 0 -0.03 -0.14
          0.01 -0.04 -0.15 0.01 -0.03 -0.15 0.01 -0.04 -0.14 0.01 -0.03 -0.14
          0.02 -0.04 -0.15 0.02 -0.03 -0.15 0.02 -0.04 -0.14 0.02 -0.03 -0.14
          0.03 -0.04 -0.15 0.03 -0.03 -0.15 0.03 -0.04 -0.14 0.03 -0.03 -0.14
          0.04 -0.04 -0.15 0.04 -0.03 -0.15 0.04 -0.04 -0.14 0.04 -0.03 -0.14
          -0.04 -0.02 -0.15 -0.03 -0.02 -0.15 -0.04 -0.02 -0.14 -0.03 -0.02 -0.14
          -0.02 -0.02 -0.15 -0.02 -0.02 -0.14 -0.01 -0.02 -0.15 -0.01 -0.02 -0.14
          0 -0.02 -0.15 0 -0.02 -0.14 0.01 -0.02 -0.15 0.01 -0.02 -0.14
          0.02 -0.02 -0.15 0.02 -0.02 -0.14 0.03 -0.02 -0.15 0.03 -0.02 -0.14
          0.04 -0.02 -0.15 0.04 -0.02 -0.14 -0.04 -0.01 -0.15 -0.03 -0.01 -0.15
          -0.04 -0.01 -0.14 -0.03 -0.01 -0.14 -0.02 -0.01 -0.15 -0.02 -0.01 -0.14
          -0.01 -0.01 -0.15 -0.01 -0.01 -0.14 0 -0.01 -0.15 0 -0.01 -0.14
          0.01 -0.01 -0.15 0.01 -0.01 -0.14 0.02 -0.01 -0.15 0.02 -0.01 -0.14
          0.03 -0.01 -0.15 0.03 -0.01 -0.14 0.04 -0.01 -0.15 0.04 -0.01 -0.14
          -0.04 0 -0.15 -0.03 0 -0.15 -0.04 0 -0.14 -0.03 0 -0.14
          -0.02 0 -0.15 -0.02 0 -0.14 -0.01 0 -0.15 -0.01 0 -0.14
          0 0 -0.15 0 0 -0.14 0.01 0 -0.15 0.01 0 -0.14
          0.02 0 -0.15 0.02 0 -0.14 0.03 0 -0.15 0.03 0 -0.14
          0.04 0 -0.15 0.04 0 -0.14 -0.04 0.01 -0.15 -0.03 0.01 -0.15
          -0.04 0.01 -0.14 -0.03 0.01 -0.14 -0.02 0.01 -0.15 -0.02 0.01 -0.14
          -0.01 0.01 -0.15 -0.01 0.01 -0.14 0 0.01 -0.15 0 0.01 -0.14
          0.01 0.01 -0.15 0.01 0.01 -0.14 0.02 0.01 -0.15 0.02 0.01 -0.14
          0.03 0.01 -0.15 0.03 0.01 -0.14 0.04 0.01 -0.15 0.04 0.01 -0.14
          -0.04 0.02 -0.15 -0.03 0.02 -0.15 -0.04 0.02 -0.14 -0.03 0.02 -0.14
          -0.02 0.02 -0.15 -0.02 0.02 -0.14 -0.01 0.02 -0.15 -0.01 0.02 -0.14
          0 0.02 -0.15 0 0.02 -0.14 0.01 0.02 -0.15 0.01 0.02 -0.14
          0.02 0.02 -0.15 0.02 0.02 -0.14 0.03 0.02 -0.15 0.03 0.02 -0.14
          0.04 0.02 -0.15 0.04 0.02 -0.14 -0.04 0.03 -0.15 -0.03 0.03 -0.15
          -0.04 0.03 -0.14 -0.03 0.03 -0.14 -0.02 0.03 -0.15 -0.02 0.03 -0.14
          -0.01 0.03 -0.15 -0.01 0.03 -0.14 0 0.03 -0.15 0 0.03 -0.14
          0.01 0.03 -0.15 0.01 0.03 -0.14 0.02 0.03 -0.15 0.02 0.03 -0.14
          0.03 0.03 -0.15 0.03 0.03 -0.14 0.04 0.03 -0.15 0.04 0.03 -0.14
          -0.04 0.04 -0.15 -0.03 0.04 -0.15 -0.04 0.04 -0.14 -0.03 0.04 -0.14
          -0.02 0.04 -0.15 -0.02 0.04 -0.14 -0.01 0.04 -0.15 -0.01 0.04 -0.14
          0 0.04 -0.15 0 0.04 -0.14 0.01 0.04 -0.15 0.01 0.04 -0.14
          0.02 0.04 -0.15 0.02 0.04 -0.14 0.03 0.04 -0.15 0.03 0.04 -0.14
          0.04 0.04 -0.15 0.04 0.04 -0.14 -0.04 -0.04 -0.13 -0.03 -0.04 -0.13
          -0.04 -0.03 -0.13 -0.03 -0.03 -0.13 -0.02 -0.04 -0.13 -0.02 -0.03 -0.13
          -0.01 -0.04 -0.13 -0.01 -0.03 -0.13 0 -0.04 -0.13 0 -0.03 -0.13
          0.01 -0.04 -0.13 0.01 -0.03 -0.13 0.02 -0.04 -0.13 0.02 -0.03 -0.13
          0.03 -0.04 -0.13 0.03 -0.03 -0.13 0.04 -0.04 -0.13 0.04 -0.03 -0.13
          -0.04 -0.02 -0.13 -0.03 -0.02 -0.13 -0.02 -0.02 -0.13 -0.01 -0.02 -0.13
          0 -0.02 -0.13 0.01 -0.02 -0.13 0.02 -0.02 -0.13 0.03 -0.02 -0.13
          0.04 -0.02 -0.13 -0.04 -0.01 -0.13 -0.03 -0.01 -0.13 -0.02 -0.01 -0.13
          -0.01 -0.01 -0.13 0 -0.01 -0.13 0.01 -0.01 -0.13 0.02 -0.01 -0.13
          0.03 -0.01 -0.13 0.04 -0.01 -0.13 -0.04 0 -0.13 -0.03 0 -0.13
          -0.02 0 -0.13 -0.01 0 -0.13 0 0 -0.13 0.01 0 -0.13
          0.02 0 -0.13 0.03 0 -0.13 0.04 0 -0.13 -0.04 0.01 -0.13
          -0.03 0.01 -0.13 -0.02 0.01 -0.13 -0.01 0.01 -0.13 0 0.01 -0.13
          0.01 0.01 -0.13 0.02 0.01 -0.13 0.03 0.01 -0.13 0.04 0.01 -0.13
          -0.04 0.02 -0.13 -0.03 0.02 -0.13 -0.02 0.02 -0.13 -0.01 0.02 -0.13
          0 0.02 -0.13 0.01 0.02 -0.13 0.02 0.02 -0.13 0.03 0.02 -0.13
          0.04 0.02 -0.13 -0.04 0.03 -0.13 -0.03 0.03 -0.13 -0.02 0.03 -0.13
          -0.01 0.03 -0.13 0 0.03 -0.13 0.01 0.03 -0.13 0.02 0.03 -0.13
          0.03 0.03 -0.13 0.04 0.03 -0.13 -0.04 0.04 -0.13 -0.03 0.04 -0.13
          -0.02 0.04 -0.13 -0.01 0.04 -0.13 0 0.04 -0.13 0.01 0.04 -0.13
          0.02 0.04 -0.13 0.03 0.04 -0.13 0.04 0.04 -0.13 -0.04 -0.04 -0.12
          -0.03 -0.04 -0.12 -0.04 -0.03 -0.12 -0.03 -0.03 -0.12 -0.02 -0.04 -0.12
          -0.02 -0.03 -0.12 -0.01 -0.04 -0.12 -0.01 -0.03 -0.12 0 -0.04 -0.12
          0 -0.03 -0.12 0.01 -0.04 -0.12 0.01 -0.03 -0.12 0.02 -0.04 -0.12
          0.02 -0.03 -0.12 0.03 -0.04 -0.12 0.03 -0.03 -0.12 0.04 -0.04 -0.12
          0.04 -0.03 -0.12 -0.04 -0.02 -0.12 -0.03 -0.02 -0.12 -0.02 -0.02 -0.12
          -0.01 -0.02 -0.12 0 -0.02 -0.12 0.01 -0.02 -0.12 0.02 -0.02 -0.12
          0.03 -0.02 -0.12 0.04 -0.02 -0.12 -0.04 -0.01 -0.12 -0.03 -0.01 -0.12
          -0.02 -0.01 -0.12 -0.01 -0.01 -0.12 0 -0.01 -0.12 0.01 -0.01 -0.12
          0.02 -0.01 -0.12 0.03 -0.01 -0.12 0.04 -0.01 -0.12 -0.04 0 -0.12
          -0.03 0 -0.12 -0.02 0 -0.12 -0.01 0 -0.12 0 0 -0.12
          0.01 0 -0.12 0.02 0 -0.12 0.03 0 -0.12 0.04 0 -0.12
          -0.04 0.01 -0.12 -0.03 0.01 -0.12 -0.02 0.01 -0.12 -0.01 0.01 -0.12
          0 0.01 -0.12 0.01 0.01 -0.12 0.02 0.01 -0.12 0.03 0.01 -0.12
          0.04 0.01 -0.12 -0.04 0.02 -0.12 -0.03 0.02 -0.12 -0.02 0.02 -0.12
          -0.01 0.02 -0.12 0 0.02 -0.12 0.01 0.02 -0.12 0.02 0.02 -0.12
          0.03 0.02 -0.12 0.04 0.02 -0.12 -0.04 0.03 -0.12 -0.03 0.03 -0.12
          -0.02 0.03 -0.12 -0.01 0.03 -0.12 0 0.03 -0.12 0.01 0.03 -0.12
          0.02 0.03 -0.12 0.03 0.03 -0.12 0.04 0.03 -0.12 -0.04 0.04 -0.12
          -0.03 0.04 -0.12 -0.02 0.04 -0.12 -0.01 0.04 -0.12 0 0.04 -0.12
          0.01 0.04 -0.12 0.02 0.04 -0.12 0.03 0.04 -0.12 0.04 0.04 -0.12
          -0.04 -0.04 -0.11 -0.03 -0.04 -0.11 -0.04 -0.03 -0.11 -0.03 -0.03 -0.11
          -0.02 -0.04 -0.11 -0.02 -0.03 -0.11 -0.01 -0.04 -0.11 -0.01 -0.03 -0.11
          0 -0.04 -0.11 0 -0.03 -0.11 0.01 -0.04 -0.11 0.01 -0.03 -0.11
          0.02 -0.04 -0.11 0.02 -0.03 -0.11 0.03 -0.04 -0.11 0.03 -0.03 -0.11
          0.04 -0.04 -0.11 0.04 -0.03 -0.11 -0.04 -0.02 -0.11 -0.03 -0.02 -0.11
          -0.02 -0.02 -0.11 -0.01 -0.02 -0.11 0 -0.02 -0.11 0.01 -0.02 -0.11
          0.02 -0.02 -0.11 0.03 -0.02 -0.11 0.04 -0.02 -0.11 -0.04 -0.01 -0.11
          -0.03 -0.01 -0.11 -0.02 -0.01 -0.11 -0.01 -0.01 -0.11 0 -0.01 -0.11
          0.01 -0.01 -0.11 0.02 -0.01 -0.11 0.03 -0.01 -0.11 0.04 -0.01 -0.11
          -0.04 0 -0.11 -0.03 0 -0.11 -0.02 0 -0.11 -0.01 0 -0.11
          0 0 -0.11 0.01 0 -0.11 0.02 0 -0.11 0.03 0 -0.11
          0.04 0 -0.11 -0.04 0.01 -0.11 -0.03 0.01 -0.11 -0.02 0.01 -0.11
          -0.01 0.01 -0.11 0 0.01 -0.11 0.01 0.01 -0.11 0.02 0.01 -0.11
          0.03 0.01 -0.11 0.04 0.01 -0.11 -0.04 0.02 -0.11 -0.03 0.02 -0.11
          -0.02 0.02 -0.11 -0.01 0.02 -0.11 0 0.02 -0.11 0.01 0.02 -0.11
          0.02 0.02 -0.11 0.03 0.02 -0.11 0.04 0.02 -0.11 -0.04 0.03 -0.11
          -0.03 0.03 -0.11 -0.02 0.03 -0.11 -0.01 0.03 -0.11 0 0.03 -0.11
          0.01 0.03 -0.11 0.02 0.03 -0.11 0.03 0.03 -0.11 0.04 0.03 -0.11
          -0.04 0.04 -0.11 -0.03 0.04 -0.11 -0.02 0.04 -0.11 -0.01 0.04 -0.11
          0 0.04 -0.11 0.01 0.04 -0.11 0.02 0.04 -0.11 0.03 0.04 -0.11
          0.04 0.04 -0.11 -0.04 -0.04 -0.1 -0.03 -0.04 -0.1 -0.04 -0.03 -0.1
          -0.03 -0.03 -0.1 -0.02 -0.04 -0.1 -0.02 -0.03 -0.1 -0.01 -0.04 -0.1
          -0.01 -0.03 -0.1 0 -0.04 -0.1 0 -0.03 -0.1 0.01 -0.04 -0.1
          0.01 -0.03 -0.1 0.02 -0.04 -0.1 0.02 -0.03 -0.1 0.03 -0.04 -0.1
          0.03 -0.03 -0.1 0.04 -0.04 -0.1 0.04 -0.03 -0.1 -0.04 -0.02 -0.1
          -0.03 -0.02 -0.1 -0.02 -0.02 -0.1 -0.01 -0.02 -0.1 0 -0.02 -0.1
          0.01 -0.02 -0.1 0.02 -0.02 -0.1 0.03 -0.02 -0.1 0.04 -0.02 -0.1
          -0.04 -0.01 -0.1 -0.03 -0.01 -0.1 -0.02 -0.01 -0.1 -0.01 -0.01 -0.1
          0 -0.01 -0.1 0.01 -0.01 -0.1 0.02 -0.01 -0.1 0.03 -0.01 -0.1
          0.04 -0.01 -0.1 -0.04 0 -0.1 -0.03 0 -0.1 -0.02 0 -0.1
          -0.01 0 -0.1 0 0 -0.1 0.01 0 -0.1 0.02 0 -0.1
          0.03 0 -0.1 0.04 0 -0.1 -0.04 0.01 -0.1 -0.03 0.01 -0.1
          -0.02 0.01 -0.1 -0.01 0.01 -0.1 0 0.01 -0.1 0.01 0.01 -0.1
          0.02 0.01 -0.1 0.03 0.01 -0.1 0.04 0.01 -0.1 -0.04 0.02 -0.1
          -0.03 0.02 -0.1 -0.02 0.02 -0.1 -0.01 0.02 -0.1 0 0.02 -0.1
          0.01 0.02 -0.1 0.02 0.02 -0.1 0.03 0.02 -0.1 0.04 0.02 -0.1
          -0.04 0.03 -0.1 -0.03 0.03 -0.1 -0.02 0.03 -0.1 -0.01 0.03 -0.1
          0 0.03 -0.1 0.01 0.03 -0.1 0.02 0.03 -0.1 0.03 0.03 -0.1