<?xml version="1.0"?>
<VTKFile type="UnstructuredGrid" version="0.1" byte_order="LittleEndian">
  <UnstructuredGrid>
    <Piece NumberOfCells="960" NumberOfPoints="1296">
      <CellData Scalars="p (Pa)">
        <DataArray type="Float32" Name="p (Pa)" NumberOfComponents="1" format="ascii">
          36055.1 35930.7 35722.1 35506.9 35381.8 35401.9 35505.5 35591.1 36042.2 35910.6 35687.1 35451.7
          35312.2 35340.2 35459.1 35554.9 36041.5 35905.8 35673 35423.1 35271.1 35305.7 35436.6 35540.2
          36079.9 35954.6 35742.1 35518.6 35385.9 35408.9 35521.7 35614.5 36159.5 36056.6 35885.6 35712.8
          35616.6 35632.5 35715.3 35785 36260.1 36183.4 36059 35938.6 35876.4 35889.3 35946 35993.6
          36350.7 36295.9 36209 36128.3 36089.4 36100.6 36139.7 36171.8 36403.8 36361.1 36294.5 36234.5
          36207.2 36217.4 36247.7 36272 35722.8 35536.5 35216.1 34872.9 34670.3 34728.6 34918.3 35065.4
          35695.9 35492.3 35133.7 34732.3 34481.7 34573.8 34812.5 34988.9 35682.9 35465.8 35074.8 34617
          34308.3 34439.7 34728.3 34933.6 35729.7 35528.5 35173.9 34777.9 34530.8 34605 34843.4 35027.3
          35839.4 35675 35394.5 35102.6 34947.2 34995.6 35157.7 35288.2 35982.4 35861.8 35663.2 35470.4
          35381.4 35418 35522.4 35606.2 36112.9 36028.7 35894.6 35771.9 35721.1 35749.4 35817.9 35871.6
          36189.6 36125.5 36025.7 35937.9 35904.1 35927.7 35979 36018.5 35152.8 34831.7 34259.2 33608.1
          33203 33382.8 33794.9 34090.8 35091 34723.7 34039.6 33192 32590.3 32930.7 33519.5 33908.5
          35044.7 34633 33831.8 32740.9 31807.5 32410.9 33229.1 33732.1 35105.2 34722.6 34007.6 33126.3
          32509.1 32757.6 33393.4 33850.5 35275.8 34963.2 34405.1 33791 33497.4 33650.3 34034 34331.6
          35509.2 35284 34902 34524.7 34390.6 34501.7 34729.3 34904.4 35725.8 35573.8 35328.3 35106
          35039 35117.3 35258 35362.9 35853.9 35741.8 35566.9 35417 35375.3 35434.9 35536 35609.8
          34358 33817.2 32811.3 31574.5 30725.4 31225.6 32092 32664.4 34230.5 33577.4 32270.3 30410
          28764.7 29980.1 31428.1 32267.6 34114 33334.3 31643.5 28759.8 25110.1 28089.1 30548.6 31798
          34187 33459.8 31991.3 29919.2 28183.8 28853.9 30668.3 31884.8 34447.2 33843.2 32679.7 31253.1
          30789.9 31230 32129.2 32821.5 34826.9 34399.4 33632.4 32830.6 32707.8 33024.3 33508 33869.8
          35186.2 34910 34449.1 34027 33974.5 34175.8 34456.5 34656.1 35399.1 35204 34895 34634.8
          34599.4 34738.1 34930.5 35063.9 33398.6 32565.9 30952.2 28803.3 27144.6 28301.6 29898.6 30878.7
          33171.6 32107.3 29809.1 25984.6 21618.9 25381.9 28537.6 30143.8 32937.5 31569.7 28181.8 20365.7
          4495.74 19062.8 26234 29099.8 33012.3 31721.2 28856.7 24103.5 19453.7 19544.2 25360.5 28877.3
          33377.5 32250.9 29770.8 25858.2 26120.9 27283.6 29154.4 30734.8 33962.4 33179.6 31622.8 29710.1
          30089.4 30945.8 31873 32569.1 34526.9 34049.5 33202.2 32371.5 32486.4 32962.8 33474.8 33822.6
          34860.4 34541.7 34021.4 33578.5 33600 33889.2 34222.9 34442.6 32390.9 31258.9 29028.7 25978.2
          23719.3 25305.8 27564.6 28953.5 32053.3 30554.2 27204.6 21364.7 16609.2 21146.9 25549.2 27909.9
          31680.3 29634.7 24131.4 8640.49 4010.09 12155.8 21339.8 26193 31745.3 29728.9 24832.8 15541.2
          11391.4 14703.4 13183 24950.2 32215.4 30299.5 25055.7 9848.56 19650.8 23282.2 25028.9 28458.8
          33044.2 31734.9 28660.2 23116.7 26503 28684.4 30128 31292.6 33855.5 33111 31655.7 29962.2
          30700.5 31695.9 32511.8 33038 34329.5 33864.4 33067.3 32347.6 32525.4 33042.6 33549.5 33865.7
          31453.6 30078.8 27406.9 23819.9 20987 22464.1 25267.8 27019 31030.5 29214.1 25306.8 19046.2
          13597.9 18190.3 23302.6 26012.6 30568.9 28081.9 21884.3 8555.96 3006.31 9807.53 19864.8 24610.8
          30677.2 28088.6 21426.1 6049.73 3113.91 7829.52 17854 24560 31313.3 28888 22306.8 7603.01
          14642.7 20021.5 24791.7 27744.2 32353.7 30616 25866.6 12453.7 23081.8 26991 29328.5 30637.8
          33366.7 32423.1 30407.3 27488.5 29251.8 30793.5 31913.1 32544 33949 33386.1 32380.4 31391.9
          31747.4 32452.5 33092.3 33470.5 30644.8 29029.9 25912.4 21793.4 18029.7 18228 22369.7 24802.2
          30139.9 27963.7 23374.5 16878.4 10745.5 14617.2 20777 23967 29625 26564 19016.5 7986.15
          2870.15 6284.77 18288.7 23119.2 29991.8 27204.8 20495.7 8380.31 3649.86 9118.98 20013.9 24535.6
          30916.9 28545.2 22289.7 7560.4 13404.3 20276.6 25225.5 27648.3 32150.9 30641.4 27211.7 21723.5
          24099.5 27046.9 29271.4 30455.2 33223.6 32387.2 30777 28949.7 29528.6 30717.1 31760.8 32356.9
          33821.8 33303.1 32418.3 31613.8 31746 32330.3 32931.5 33296.3 30060.9 28203 24532.5 19662.2
          14019 7267.82 18028.7 22114.3 29477.3 26788 20625.6 13652.9 6890.1 7987.79 16972.2 21226.9
          28883.6 24440.3 7560.26 3163.35 1811.71 975.887 15006.9 20333.1 29685.8 26779.7 19793.8 10218.7
          2266.26 10999.6 20063 23768.3 30957.4 29057.4 24942.1 18839.5 17002.8 21660 25588.7 27525.8
          32278.6 31143.3 28933.9 26264.3 26050.1 27798.8 29499.3 30453.6 33318.5 32672 31535.3 30400.1
          30344.9 31064.1 31865.3 32354.7 33880.3 33460.8 32775.4 32170.8 32120.8 32502.5 32976.1 33281.3
          29874.2 28024.9 24360 19044.5 11835.6 2760.36 14613.3 19783.4 29406.1 26979.1 21810.9 14264.3
          4775.44 874.279 12394.9 17925.3 29066.3 25817.7 17794.7 6783.16 1719.54 1221.19 11365.2 13447.9
          29884.9 27479.8 22237.7 14453.3 8533.95 13883.5 19558.3 22293.6 31207.6 29695.5 26720.9 22905.1
          20975.4 23232.7 25829.2 27320.2 32505.9 31626.7 30041.3 28304.6 27698.5 28594.4 29771 30512.1
          33483.4 32979 32131.1 31311.6 31078.4 31475.5 32050.2 32433.8 34000.1 33665.7 33130 32651.8
          32524.1 32751.7 33101.7 33343.5 29911.7 28089.3 24426.1 19139.2 13077.1 8869.5 14874.2 19291.5
          29507 27103.3 21670.4 13343.6 4172.11 3.98859 8960.47 16957.9 29243.5 25885.6 15298.8 1866.04
          441.701 1796.09 4851.71 15490.6 30090.1 27708 21783.3 8607.38 9523.22 13241.9 18095.2 22385
          31420 30033.2 27211.6 23250 22167.7 23670.1 25864.3 27472.8 32683 31919.2 30544.8 29015.8
          28459.3 29043.3 29998.8 30677.4 33609.7 33182.7 32470.1 31772.6 31515.1 31772.1 32228 32555.5
          34092.1 33811.3 33362.4 32952.6 32805.3 32954.3 33229.7 33430.6 30088.1 28376.3 24920.4 19835.5
          14423.5 12101.4 15945.6 20293.8 29764.9 27597.9 22727.1 14217.2 5106.05 1508.14 5008.25 17947.7
          29611.9 26871.6 19505.1 2206.31 2222.26 537.55 11958.6 19521.2 30357.4 28283.5 23428.4 13969.4
          11261.9 15340.8 20800.9 24172.8 31582.4 30332.3 27841.6 24463.3 23019.6 24585.9 26775.9 28201.9
          32775.4 32081.6 30843.5 29474.3 28897.1 29458.9 30370.7 30998.2 33657.6 33271.8 32630.2 32001.5
          31751.2 31982.9 32404.3 32707 34117.1 33865.2 33463.1 33094.4 32953.7 33082.8 33331.8 33515.2
          30256.9 28671.7 25509.2 20965.7 16512.8 16974.8 20223.3 22877.8 29978.9 28041 23816.8 16670
          8117.25 10778.8 17221.9 21915.9 29857.1 27545.6 21949.5 10726.4 1435.75 3304.04 17464.7 22729.5
          30465.3 28574.9 24422.7 17703.9 12663.7 17410.4 23003.7 25816.8 31589.5 30386.9 28049 25067
          23547.3 25351.6 27609.5 28936.3 32741.4 32061.5 30860.3 29573.1 29070.6 29735.3 30690.6 31309.7
          33610.2 33233.3 32610.7 32015.4 31810.4 32085.2 32527.3 32832.7 34065.5 33822 33435.9 33089.8
          32975.4 33125.2 33383.8 33569 30303.8 28764.8 25693.1 21271.6 17026.4 19427.4 22746.9 24824.3
          29998.3 28085.1 23868.6 16422.6 5101.42 14482.4 21052 24280.3 29787.4 27409.2 21582.5 9844
          1883.55 8146.39 20217.2 24609 30245.3 28045.4 22809.4 13690 11028.7 18291.4 24173.1 26848.9
          31370.7 29976.1 27115.3 23329.9 22786.1 25510.4 28055.5 29413.2 32571.9 31812 30434.2 28964.4
          28765.3 29743.9 30842.1 31499.9 33480.1 33076 32404 31779.3 31670.6 32055.3 32560.4 32888.9
          33954.4 33701.8 33302.8 32958.1 32884.6 33082.9 33373.5 33572.5 30248.1 28715.4 25687.9 21518.1
          18233.6 20730.8 23902.5 25771.8 29889.6 27917.3 23582.8 16375.4 9698.82 16691.4 22540.7 25334.1
          29546.9 26862.6 19970.6 5513.92 1570.8 11498 21572.6 25479.7 29843.2 26883.8 18357.1 1507.57
          7391.5 18391.3 24654 27307.2 31055.4 29291.4 25206.5 18902.4 21238.5 25297.4 28177.7 29597
          32359.3 31468.9 29754.9 27806.8 28211.5 29588.4 30840.1 31542.2 33327.9 32882.8 32125.9 31420.5
          31442 31946.2 32513.6 32865.2 33827.5 33560.4 33137.3 32779.7 32746.1 32990.4 33310.8 33522.8
        </DataArray>
        <DataArray type="Float32" Name="saturation" NumberOfComponents="1" format="ascii">
          0.300862 0.300729 0.300507 0.300279 0.300147 0.300168 0.300277 0.300368 0.300848 0.300708 0.30047 0.30022
          0.300073 0.300103 0.300228 0.30033 0.300848 0.300702 0.300455 0.30019 0.30003 0.300067 0.300204 0.300314
          0.300889 0.300755 0.300528 0.300291 0.300151 0.300175 0.300294 0.300393 0.300974 0.300864 0.300681 0.300497
          0.300395 0.300412 0.3005 0.300574 0.301082 0.301 0.300866 0.300738 0.300671 0.300685 0.300745 0.300796
          0.30118 0.301121 0.301027 0.300941 0.300899 0.300911 0.300953 0.300987 0.301237 0.301191 0.301119 0.301055
          0.301025 0.301036 0.301069 0.301095 0.300508 0.30031 0.299972 0.299614 0.299403 0.299464 0.299661 0.299815
          0.300479 0.300263 0.299886 0.299468 0.299208 0.299304 0.299551 0.299735 0.300465 0.300235 0.299824 0.299348
          0.29903 0.299165 0.299463 0.299677 0.300515 0.300302 0.299928 0.299515 0.299259 0.299336 0.299583 0.299775
          0.300632 0.300457 0.30016 0.299853 0.299691 0.299742 0.299911 0.300048 0.300784 0.300655 0.300444 0.30024
          0.300146 0.300185 0.300295 0.300384 0.300924 0.300834 0.300691 0.30056 0.300506 0.300536 0.300609 0.300666
          0.301007 0.300938 0.300831 0.300737 0.300701 0.300726 0.300781 0.300823 0.299906 0.299571 0.29898 0.298317
          0.29791 0.29809 0.298506 0.298807 0.299841 0.299459 0.298755 0.297899 0.297302 0.297639 0.298228 0.298622
          0.299793 0.299365 0.298544 0.297451 0.296538 0.297126 0.297936 0.298443 0.299856 0.299457 0.298722 0.297834
          0.297222 0.297467 0.298101 0.298563 0.300035 0.299708 0.29913 0.298502 0.298206 0.29836 0.298749 0.299054
          0.300281 0.300044 0.299644 0.299253 0.299115 0.299229 0.299464 0.299646 0.300511 0.30035 0.30009 0.299857
          0.299787 0.299869 0.300016 0.300127 0.300647 0.300528 0.300342 0.300184 0.30014 0.300203 0.30031 0.300388
          0.299081 0.298529 0.297521 0.296313 0.295504 0.295979 0.296814 0.297375 0.29895 0.298286 0.296988 0.295208
          0.293695 0.294807 0.296172 0.296985 0.298831 0.298042 0.29638 0.29369 0.290525 0.293089 0.295338 0.296529
          0.298906 0.298168 0.296716 0.29475 0.293174 0.293775 0.29545 0.296613 0.299173 0.298555 0.29739 0.296005
          0.295565 0.295983 0.29685 0.297531 0.299566 0.299124 0.298342 0.29754 0.297418 0.297732 0.298216 0.298582
          0.299941 0.299652 0.299175 0.298742 0.298689 0.298894 0.299183 0.299389 0.300165 0.29996 0.299637 0.299367
          0.29933 0.299474 0.299674 0.299813 0.298106 0.297278 0.295719 0.29373 0.292258 0.293279 0.294731 0.295649
          0.297879 0.296829 0.294648 0.291261 0.287719 0.290752 0.29349 0.294959 0.297646 0.296308 0.293172 0.286759
          0.276388 0.285787 0.291473 0.293998 0.29772 0.296454 0.293778 0.289695 0.286076 0.286143 0.290734 0.293796
          0.298085 0.296969 0.294613 0.291154 0.291377 0.29238 0.294048 0.295513 0.298676 0.297887 0.29636 0.294557
          0.294908 0.295713 0.296601 0.297281 0.299255 0.298765 0.297909 0.297087 0.2972 0.297671 0.298183 0.298534
          0.299601 0.29927 0.298737 0.298287 0.298309 0.298602 0.298943 0.299168 0.297106 0.296011 0.293934 0.291255
          0.289383 0.290688 0.292626 0.293865 0.296776 0.295343 0.292311 0.287522 0.284022 0.287354 0.290893 0.29293
          0.296415 0.294488 0.289718 0.278818 0.276114 0.281021 0.287503 0.291438 0.296478 0.294574 0.290294 0.283279
          0.28053 0.282707 0.281691 0.290392 0.296934 0.295104 0.29048 0.27956 0.286223 0.28903 0.290457 0.29342
          0.297752 0.296468 0.2936 0.288898 0.291704 0.293622 0.294944 0.296043 0.298568 0.297818 0.296391 0.29479
          0.295481 0.29643 0.297225 0.297746 0.299052 0.298577 0.297775 0.297064 0.297238 0.29775 0.298258 0.298578
          0.296197 0.294898 0.292487 0.289464 0.287232 0.28838 0.290657 0.292149 0.295793 0.294102 0.290689 0.285775
          0.281966 0.28515 0.289047 0.291285 0.295357 0.293083 0.287925 0.278767 0.275555 0.279534 0.286383 0.290111
          0.295459 0.293089 0.287569 0.277279 0.275615 0.278329 0.284907 0.290069 0.296062 0.293806 0.288256 0.278194
          0.282666 0.2865 0.29026 0.292784 0.29707 0.295401 0.291161 0.281214 0.28887 0.292125 0.294207 0.295421
          0.298074 0.297138 0.295205 0.292559 0.294137 0.295568 0.29664 0.297257 0.298663 0.298094 0.297096 0.296138
          0.29648 0.297167 0.2978 0.298179 0.295428 0.293935 0.291199 0.287854 0.285034 0.285177 0.288305 0.290269
          0.294955 0.292978 0.289104 0.284212 0.280121 0.282649 0.287071 0.289584 0.294479 0.291756 0.285753 0.278423
          0.27548 0.277416 0.285221 0.2889 0.294818 0.292311 0.286858 0.27866 0.275913 0.27911 0.286494 0.290049
          0.295685 0.293497 0.288242 0.278168 0.281837 0.286692 0.290621 0.292699 0.296871 0.295425 0.292317 0.2878
          0.289692 0.292173 0.294155 0.29525 0.297931 0.297103 0.295553 0.293862 0.29439 0.295496 0.296493 0.297073
          0.298534 0.29801 0.297133 0.296351 0.296478 0.297047 0.29764 0.298004 0.294882 0.293191 0.290046 0.286231
          0.282246 0.277994 0.285033 0.288105 0.294343 0.291949 0.286956 0.282002 0.277771 0.278424 0.284278 0.287416
          0.293802 0.289971 0.278168 0.275642 0.274902 0.274453 0.282913 0.286735 0.294535 0.291942 0.286329 0.27979
          0.275149 0.280281 0.286531 0.289422 0.295724 0.29396 0.290385 0.285623 0.2843 0.287751 0.290926 0.292592
          0.296996 0.2959 0.293848 0.291499 0.291316 0.292832 0.294363 0.295248 0.298026 0.297383 0.296275 0.295198
          0.295147 0.295825 0.296594 0.297071 0.298593 0.298169 0.297485 0.296891 0.296842 0.297216 0.297684 0.297989
          0.294709 0.293032 0.289905 0.285774 0.280815 0.27542 0.282646 0.286322 0.294278 0.292115 0.287868 0.282411
          0.276547 0.274398 0.281176 0.284958 0.293968 0.291119 0.284864 0.277708 0.274852 0.274584 0.280513 0.281866
          0.294719 0.292551 0.288201 0.282538 0.278753 0.282156 0.286154 0.288245 0.295962 0.294544 0.291891 0.288729
          0.287223 0.288991 0.291129 0.292412 0.297219 0.296363 0.294864 0.293282 0.292744 0.293541 0.294613 0.295303
          0.298192 0.297687 0.296852 0.296061 0.295838 0.296218 0.296773 0.297148 0.298715 0.298375 0.297837 0.297363
          0.297237 0.297462 0.297809 0.298051 0.294743 0.29309 0.289959 0.285843 0.281622 0.278957 0.282823 0.285956
          0.29437 0.292222 0.287759 0.281797 0.276205 0.273937 0.279013 0.284268 0.294129 0.291177 0.283113 0.274932
          0.274169 0.274894 0.27659 0.283245 0.294909 0.292752 0.287846 0.278798 0.279358 0.28173 0.285081 0.288317
          0.296165 0.294856 0.292317 0.289005 0.288146 0.289343 0.291159 0.292545 0.297394 0.296646 0.295334 0.293922
          0.29342 0.293947 0.294824 0.295459 0.298319 0.29789 0.297184 0.296504 0.296256 0.296504 0.296947 0.297268
          0.298809 0.298523 0.29807 0.297661 0.297515 0.297662 0.297937 0.298138 0.294907 0.293346 0.290367 0.286361
          0.282518 0.280986 0.283559 0.286705 0.294608 0.292655 0.288588 0.282379 0.276735 0.274738 0.276679 0.284975
          0.294467 0.292021 0.286114 0.275117 0.275125 0.274219 0.280894 0.286126 0.295158 0.293263 0.289148 0.282213
          0.280448 0.283142 0.28709 0.289751 0.296321 0.295135 0.29287 0.28999 0.28882 0.290091 0.291939 0.29319
          0.297485 0.296804 0.295616 0.29434 0.293814 0.294326 0.295171 0.295762 0.298367 0.297979 0.297341 0.296726
          0.296483 0.296708 0.297119 0.297417 0.298834 0.298578 0.298171 0.297802 0.297662 0.29779 0.298039 0.298224
          0.295064 0.293611 0.290859 0.287216 0.283954 0.28428 0.286652 0.288707 0.294806 0.293047 0.289462 0.284065
          0.278502 0.280142 0.284455 0.28795 0.294693 0.292609 0.287976 0.280109 0.274699 0.27572 0.284628 0.288589
          0.295259 0.293524 0.289956 0.284799 0.281351 0.284589 0.288808 0.291119 0.296328 0.295186 0.293054 0.290489
          0.289244 0.290727 0.292665 0.29385 0.297451 0.296784 0.295631 0.294431 0.293972 0.29458 0.295471 0.296059
          0.298319 0.297941 0.297322 0.29674 0.296541 0.296807 0.29724 0.297542 0.298782 0.298534 0.298144 0.297797
          0.297683 0.297833 0.298091 0.298278 0.295108 0.293695 0.291014 0.28745 0.284316 0.286057 0.288603 0.290287
          0.294824 0.293086 0.289504 0.283891 0.276733 0.282558 0.287282 0.289839 0.294628 0.292489 0.28769 0.279557
          0.274941 0.278519 0.286647 0.29011 0.295054 0.293051 0.288653 0.282027 0.2803 0.285223 0.289752 0.292002
          0.296117 0.294803 0.292233 0.289069 0.288634 0.29086 0.29306 0.294284 0.297284 0.296542 0.29523 0.293875
          0.293695 0.294588 0.295614 0.296241 0.298188 0.297784 0.297119 0.296511 0.296406 0.296778 0.297273 0.297597
          0.298668 0.298412 0.29801 0.297666 0.297593 0.29779 0.298081 0.298281 0.295056 0.29365 0.29101 0.287641
          0.285181 0.287036 0.289531 0.29108 0.294723 0.292937 0.289272 0.283858 0.279467 0.28408 0.28844 0.290712
          0.294407 0.292014 0.286462 0.276969 0.274772 0.280598 0.287683 0.290834 0.29468 0.292032 0.285271 0.274738
          0.278068 0.285296 0.290147 0.2924 0.295817 0.294173 0.290605 0.285669 0.287425 0.290681 0.293168 0.294453
          0.297075 0.296212 0.294598 0.292839 0.293198 0.294445 0.295612 0.296282 0.298035 0.297591 0.296847 0.296165
          0.296186 0.296672 0.297227 0.297574 0.298539 0.298269 0.297845 0.297489 0.297456 0.297698 0.298018 0.298231
        </DataArray>
        <DataArray type="Float32" Name="process rank" NumberOfComponents="1" format="ascii">
          0 0 0 0 0 0 0 0 0 0 0 0
          0 0 0 0 0 0 0 0 0 0 0 0
          0 0 0 0 0 0 0 0 0 0 0 0
          0 0 0 0 0 0 0 0 0 0 0 0
          0 0 0 0 0 0 0 0 0 0 0 0
          0 0 0 0 0 0 0 0 0 0 0 0
          0 0 0 0 0 0 0 0 0 0 0 0
          0 0 0 0 0 0 0 0 0 0 0 0
          0 0 0 0 0 0 0 0 0 0 0 0
          0 0 0 0 0 0 0 0 0 0 0 0
          0 0 0 0 0 0 0 0 0 0 0 0
          0 0 0 0 0 0 0 0 0 0 0 0
          0 0 0 0 0 0 0 0 0 0 0 0
          0 0 0 0 0 0 0 0 0 0 0 0
          0 0 0 0 0 0 0 0 0 0 0 0
          0 0 0 0 0 0 0 0 0 0 0 0
          0 0 0 0 0 0 0 0 0 0 0 0
          0 0 0 0 0 0 0 0 0 0 0 0
          0 0 0 0 0 0 0 0 0 0 0 0
          0 0 0 0 0 0 0 0 0 0 0 0
          0 0 0 0 0 0 0 0 0 0 0 0
          0 0 0 0 0 0 0 0 0 0 0 0
          0 0 0 0 0 0 0 0 0 0 0 0
          0 0 0 0 0 0 0 0 0 0 0 0
          0 0 0 0 0 0 0 0 0 0 0 0
          0 0 0 0 0 0 0 0 0 0 0 0
          0 0 0 0 0 0 0 0 0 0 0 0
          0 0 0 0 0 0 0 0 0 0 0 0
          0 0 0 0 0 0 0 0 0 0 0 0
          0 0 0 0 0 0 0 0 0 0 0 0
          0 0 0 0 0 0 0 0 0 0 0 0
          0 0 0 0 0 0 0 0 0 0 0 0
          0 0 0 0 0 0 0 0 0 0 0 0
          0 0 0 0 0 0 0 0 0 0 0 0
          0 0 0 0 0 0 0 0 0 0 0 0
          0 0 0 0 0 0 0 0 0 0 0 0
          0 0 0 0 0 0 0 0 0 0 0 0
          0 0 0 0 0 0 0 0 0 0 0 0
          0 0 0 0 0 0 0 0 0 0 0 0
          0 0 0 0 0 0 0 0 0 0 0 0
          0 0 0 0 0 0 0 0 0 0 0 0
          0 0 0 0 0 0 0 0 0 0 0 0
          0 0 0 0 0 0 0 0 0 0 0 0
          0 0 0 0 0 0 0 0 0 0 0 0
          0 0 0 0 0 0 0 0 0 0 0 0
          0 0 0 0 0 0 0 0 0 0 0 0
          0 0 0 0 0 0 0 0 0 0 0 0
          0 0 0 0 0 0 0 0 0 0 0 0
          0 0 0 0 0 0 0 0 0 0 0 0
          0 0 0 0 0 0 0 0 0 0 0 0
          0 0 0 0 0 0 0 0 0 0 0 0
          0 0 0 0 0 0 0 0 0 0 0 0
          0 0 0 0 0 0 0 0 0 0 0 0
          0 0 0 0 0 0 0 0 0 0 0 0
          0 0 0 0 0 0 0 0 0 0 0 0
          0 0 0 0 0 0 0 0 0 0 0 0
          0 0 0 0 0 0 0 0 0 0 0 0
          0 0 0 0 0 0 0 0 0 0 0 0
          0 0 0 0 0 0 0 0 0 0 0 0
          0 0 0 0 0 0 0 0 0 0 0 0
          0 0 0 0 0 0 0 0 0 0 0 0
          0 0 0 0 0 0 0 0 0 0 0 0
          0 0 0 0 0 0 0 0 0 0 0 0
          0 0 0 0 0 0 0 0 0 0 0 0
          0 0 0 0 0 0 0 0 0 0 0 0
          0 0 0 0 0 0 0 0 0 0 0 0
          0 0 0 0 0 0 0 0 0 0 0 0
          0 0 0 0 0 0 0 0 0 0 0 0
          0 0 0 0 0 0 0 0 0 0 0 0
          0 0 0 0 0 0 0 0 0 0 0 0
          0 0 0 0 0 0 0 0 0 0 0 0
          0 0 0 0 0 0 0 0 0 0 0 0
          0 0 0 0 0 0 0 0 0 0 0 0
          0 0 0 0 0 0 0 0 0 0 0 0
          0 0 0 0 0 0 0 0 0 0 0 0
          0 0 0 0 0 0 0 0 0 0 0 0
          0 0 0 0 0 0 0 0 0 0 0 0
          0 0 0 0 0 0 0 0 0 0 0 0
          0 0 0 0 0 0 0 0 0 0 0 0
          0 0 0 0 0 0 0 0 0 0 0 0
        </DataArray>
      </CellData>
      <Points>
        <DataArray type="Float32" Name="Coordinates" NumberOfComponents="3" format="ascii">
          -0.04 -0.04 -0.15 -0.03 -0.04 -0.15 -0.04 -0.03 -0.15 -0.03 -0.03 -0.15
          -0.04 -0.04 -0.14 -0.03 -0.04 -0.14 -0.04 -0.03 -0.14 -0.03 -0.03 -0.14
          -0.02 -0.04 -0.15 -0.02 -0.03 -0.15 -0.02 -0.04 -0.14 -0.02 -0.03 -0.14
          -0.01 -0.04 -0.15 -0.01 -0.03 -0.15 -0.01 -0.04 -0.14 -0.01 -0.03 -0.14
          0 -0.04 -0.15 0 -0.03 -0.15 0 -0.04 -0.14 0 -0.03 -0.14
          0.01 -0.04 -0.15 0.01 -0.03 -0.15 0.01 -0.04 -0.14 0.01 -0.03 -0.14
          0.02 -0.04 -0.15 0.02 -0.03 -0.15 0.02 -0.04 -0.14 0.02 -0.03 -0.14
          0.03 -0.04 -0.15 0.03 -0.03 -0.15 0.03 -0.04 -0.14 0.03 -0.03 -0.14
          0.04 -0.04 -0.15 0.04 -0.03 -0.15 0.04 -0.04 -0.14 0.04 -0.03 -0.14
          -0.04 -0.02 -0.15 -0.03 -0.02 -0.15 -0.04 -0.02 -0.14 -0.03 -0.02 -0.14
          -0.02 -0.02 -0.15 -0.02 -0.02 -0.14 -0.01 -0.02 -0.15 -0.01 -0.02 -0.14
          0 -0.02 -0.15 0 -0.02 -0.14 0.01 -0.02 -0.15 0.01 -0.02 -0.14
          0.02 -0.02 -0.15 0.02 -0.02 -0.14 0.03 -0.02 -0.15 0.03 -0.02 -0.14
          0.04 -0.02 -0.15 0.04 -0.02 -0.14 -0.04 -0.01 -0.15 -0.03 -0.01 -0.15
          -0.04 -0.01 -0.14 -0.03 -0.01 -0.14 -0.02 -0.01 -0.15 -0.02 -0.01 -0.14
          -0.01 -0.01 -0.15 -0.01 -0.01 -0.14 0 -0.01 -0.15 0 -0.01 -0.14
          0.01 -0.01 -0.15 0.01 -0.01 -0.14 0.02 -0.01 -0.15 0.02 -0.01 -0.14
          0.03 -0.01 -0.15 0.03 -0.01 -0.14 0.04 -0.01 -0.15 0.04 -0.01 -0.14
          -0.04 0 -0.15 -0.03 0 -0.15 -0.04 0 -0.14 -0.03 0 -0.14
          -0.02 0 -0.15 -0.02 0 -0.14 -0.01 0 -0.15 -0.01 0 -0.14
          0 0 -0.15 0 0 -0.14 0.01 0 -0.15 0.01 0 -0.14
          0.02 0 -0.15 0.02 0 -0.14 0.03 0 -0.15 0.03 0 -0.14
          0.04 0 -0.15 0.04 0 -0.14 -0.04 0.01 -0.15 -0.03 0.01 -0.15
          -0.04 0.01 -0.14 -0.03 0.01 -0.14 -0.02 0.01 -0.15 -0.02 0.01 -0.14
          -0.01 0.01 -0.15 -0.01 0.01 -0.14 0 0.01 -0.15 0 0.01 -0.14
          0.01 0.01 -0.15 0.01 0.01 -0.14 0.02 0.01 -0.15 0.02 0.01 -0.14
          0.03 0.01 -0.15 0.03 0.01 -0.14 0.04 0.01 -0.15 0.04 0.01 -0.14
          -0.04 0.02 -0.15 -0.03 0.02 -0.15 -0.04 0.02 -0.14 -0.03 0.02 -0.14
          -0.02 0.02 -0.15 -0.02 0.02 -0.14 -0.01 0.02 -0.15 -0.01 0.02 -0.14
          0 0.02 -0.15 0 0.02 -0.14 0.01 0.02 -0.15 0.01 0.02 -0.14
          0.02 0.02 -0.15 0.02 0.02 -0.14 0.03 0.02 -0.15 0.03 0.02 -0.14
          0.04 0.02 -0.15 0.04 0.02 -0.14 -0.04 0.03 -0.15 -0.03 0.03 -0.15
          -0.04 0.03 -0.14 -0.03 0.03 -0.14 -0.02 0.03 -0.15 -0.02 0.03 -0.14
          -0.01 0.03 -0.15 -0.01 0.03 -0.14 0 0.03 -0.15 0 0.03 -0.14
          0.01 0.03 -0.15 0.01 0.03 -0.14 0.02 0.03 -0.15 0.02 0.03 -0.14
          0.03 0.03 -0.15 0.03 0.03 -0.14 0.04 0.03 -0.15 0.04 0.03 -0.14
          -0.04 0.04 -0.15 -0.03 0.04 -0.15 -0.04 0.04 -0.14 -0.03 0.04 -0.14
          -0.02 0.04 -0.15 -0.02 0.04 -0.14 -0.01 0.04 -0.15 -0.01 0.04 -0.14
          0 0.04 -0.15 0 0.04 -0.14 0.01 0.04 -0.15 0.01 0.04 -0.14
          0.02 0.04 -0.15 0.02 0.04 -0.14 0.03 0.04 -0.15 0.03 0.04 -0.14
          0.04 0.04 -0.15 0.04 0.04 -0.14 -0.04 -0.04 -0.13 -0.03 -0.04 -0.13
          -0.04 -0.03 -0.13 -0.03 -0.03 -0.13 -0.02 -0.04 -0.13 -0.02 -0.03 -0.13
          -0.01 -0.04 -0.13 -0.01 -0.03 -0.13 0 -0.04 -0.13 0 -0.03 -0.13
          0.01 -0.04 -0.13 0.01 -0.03 -0.13 0.02 -0.04 -0.13 0.02 -0.03 -0.13
          0.03 -0.04 -0.13 0.03 -0.03 -0.13 0.04 -0.04 -0.13 0.04 -0.03 -0.13
          -0.04 -0.02 -0.13 -0.03 -0.02 -0.13 -0.02 -0.02 -0.13 -0.01 -0.02 -0.13
          0 -0.02 -0.13 0.01 -0.02 -0.13 0.02 -0.02 -0.13 0.03 -0.02 -0.13
          0.04 -0.02 -0.13 -0.04 -0.01 -0.13 -0.03 -0.01 -0.13 -0.02 -0.01 -0.13
          -0.01 -0.01 -0.13 0 -0.01 -0.13 0.01 -0.01 -0.13 0.02 -0.01 -0.13
          0.03 -0.01 -0.13 0.04 -0.01 -0.13 -0.04 0 -0.13 -0.03 0 -0.13
          -0.02 0 -0.13 -0.01 0 -0.13 0 0 -0.13 0.01 0 -0.13
          0.02 0 -0.13 0.03 0 -0.13 0.04 0 -0.13 -0.04 0.01 -0.13
          -0.03 0.01 -0.13 -0.02 0.01 -0.13 -0.01 0.01 -0.13 0 0.01 -0.13
          0.01 0.01 -0.13 0.02 0.01 -0.13 0.03 0.01 -0.13 0.04 0.01 -0.13
          -0.04 0.02 -0.13 -0.03 0.02 -0.13 -0.02 0.02 -0.13 -0.01 0.02 -0.13
          0 0.02 -0.13 0.01 0.02 -0.13 0.02 0.02 -0.13 0.03 0.02 -0.13
          0.04 0.02 -0.13 -0.04 0.03 -0.13 -0.03 0.03 -0.13 -0.02 0.03 -0.13
          -0.01 0.03 -0.13 0 0.03 -0.13 0.01 0.03 -0.13 0.02 0.03 -0.13
          0.03 0.03 -0.13 0.04 0.03 -0.13 -0.04 0.04 -0.13 -0.03 0.04 -0.13
          -0.02 0.04 -0.13 -0.01 0.04 -0.13 0 0.04 -0.13 0.01 0.04 -0.13
          0.02 0.04 -0.13 0.03 0.04 -0.13 0.04 0.04 -0.13 -0.04 -0.04 -0.12
          -0.03 -0.04 -0.12 -0.04 -0.03 -0.12 -0.03 -0.03 -0.12 -0.02 -0.04 -0.12
          -0.02 -0.03 -0.12 -0.01 -0.04 -0.12 -0.01 -0.03 -0.12 0 -0.04 -0.12
          0 -0.03 -0.12 0.01 -0.04 -0.12 0.01 -0.03 -0.12 0.02 -0.04 -0.12
          0.02 -0.03 -0.12 0.03 -0.04 -0.12 0.03 -0.03 -0.12 0.04 -0.04 -0.12
          0.04 -0.03 -0.12 -0.04 -0.02 -0.12 -0.03 -0.02 -0.12 -0.02 -0.02 -0.12
          -0.01 -0.02 -0.12 0 -0.02 -0.12 0.01 -0.02 -0.12 0.02 -0.02 -0.12
          0.03 -0.02 -0.12 0.04 -0.02 -0.12 -0.04 -0.01 -0.12 -0.03 -0.01 -0.12
          -0.02 -0.01 -0.12 -0.01 -0.01 -0.12 0 -0.01 -0.12 0.01 -0.01 -0.12
          0.02 -0.01 -0.12 0.03 -0.01 -0.12 0.04 -0.01 -0.12 -0.04 0 -0.12
          -0.03 0 -0.12 -0.02 0 -0.12 -0.01 0 -0.12 0 0 -0.12
          0.01 0 -0.12 0.02 0 -0.12 0.03 0 -0.12 0.04 0 -0.12
          -0.04 0.01 -0.12 -0.03 0.01 -0.12 -0.02 0.01 -0.12 -0.01 0.01 -0.12
          0 0.01 -0.12 0.01 0.01 -0.12 0.02 0.01 -0.12 0.03 0.01 -0.12
          0.04 0.01 -0.12 -0.04 0.02 -0.12 -0.03 0.02 -0.12 -0.02 0.02 -0.12
          -0.01 0.02 -0.12 0 0.02 -0.12 0.01 0.02 -0.12 0.02 0.02 -0.12
          0.03 0.02 -0.12 0.04 0.02 -0.12 -0.04 0.03 -0.12 -0.03 0.03 -0.12
          -0.02 0.03 -0.12 -0.01 0.03 -0.12 0 0.03 -0.12 0.01 0.03 -0.12
          0.02 0.03 -0.12 0.03 0.03 -0.12 0.04 0.03 -0.12 -0.04 0.04 -0.12
          -0.03 0.04 -0.12 -0.02 0.04 -0.12 -0.01 0.04 -0.12 0 0.04 -0.12
          0.01 0.04 -0.12 0.02 0.04 -0.12 0.03 0.04 -0.12 0.04 0.04 -0.12
          -0.04 -0.04 -0.11 -0.03 -0.04 -0.11 -0.04 -0.03 -0.11 -0.03 -0.03 -0.11
          -0.02 -0.04 -0.11 -0.02 -0.03 -0.11 -0.01 -0.04 -0.11 -0.01 -0.03 -0.11
          0 -0.04 -0.11 0 -0.03 -0.11 0.01 -0.04 -0.11 0.01 -0.03 -0.11
          0.02 -0.04 -0.11 0.02 -0.03 -0.11 0.03 -0.04 -0.11 0.03 -0.03 -0.11
          0.04 -0.04 -0.11 0.04 -0.03 -0.11 -0.04 -0.02 -0.11 -0.03 -0.02 -0.11
          -0.02 -0.02 -0.11 -0.01 -0.02 -0.11 0 -0.02 -0.11 0.01 -0.02 -0.11
          0.02 -0.02 -0.11 0.03 -0.02 -0.11 0.04 -0.02 -0.11 -0.04 -0.01 -0.11
          -0.03 -0.01 -0.11 -0.02 -0.01 -0.11 -0.01 -0.01 -0.11 0 -0.01 -0.11
          0.01 -0.01 -0.11 0.02 -0.01 -0.11 0.03 -0.01 -0.11 0.04 -0.01 -0.11
          -0.04 0 -0.11 -0.03 0 -0.11 -0.02 0 -0.11 -0.01 0 -0.11
          0 0 -0.11 0.01 0 -0.11 0.02 0 -0.11 0.03 0 -0.11
          0.04 0 -0.11 -0.04 0.01 -0.11 -0.03 0.01 -0.11 -0.02 0.01 -0.11
          -0.01 0.01 -0.11 0 0.01 -0.11 0.01 0.01 -0.11 0.02 0.01 -0.11
          0.03 0.01 -0.11 0.04 0.01 -0.11 -0.04 0.02 -0.11 -0.03 0.02 -0.11
          -0.02 0.02 -0.11 -0.01 0.02 -0.11 0 0.02 -0.11 0.01 0.02 -0.11
          0.02 0.02 -0.11 0.03 0.02 -0.11 0.04 0.02 -0.11 -0.04 0.03 -0.11
          -0.03 0.03 -0.11 -0.02 0.03 -0.11 -0.01 0.03 -0.11 0 0.03 -0.11
          0.01 0.03 -0.11 0.02 0.03 -0.11 0.03 0.03 -0.11 0.04 0.03 -0.11
          -0.04 0.04 -0.11 -0.03 0.04 -0.11 -0.02 0.04 -0.11 -0.01 0.04 -0.11
          0 0.04 -0.11 0.01 0.04 -0.11 0.02 0.04 -0.11 0.03 0.04 -0.11
          0.04 0.04 -0.11 -0.04 -0.04 -0.1 -0.03 -0.04 -0.1 -0.04 -0.03 -0.1
          -0.03 -0.03 -0.1 -0.02 -0.04 -0.1 -0.02 -0.03 -0.1 -0.01 -0.04 -0.1
          -0.01 -0.03 -0.1 0 -0.04 -0.1 0 -0.03 -0.1 0.01 -0.04 -0.1
          0.01 -0.03 -0.1 0.02 -0.04 -0.1 0.02 -0.03 -0.1 0.03 -0.04 -0.1
          0.03 -0.03 -0.1 0.04 -0.04 -0.1 0.04 -0.03 -0.1 -0.04 -0.02 -0.1
          -0.03 -0.02 -0.1 -0.02 -0.02 -0.1 -0.01 -0.02 -0.1 0 -0.02 -0.1
          0.01 -0.02 -0.1 0.02 -0.02 -0.1 0.03 -0.02 -0.1 0.04 -0.02 -0.1
          -0.04 -0.01 -0.1 -0.03 -0.01 -0.1 -0.02 -0.01 -0.1 -0.01 -0.01 -0.1
          0 -0.01 -0.1 0.01 -0.01 -0.1 0.02 -0.01 -0.1 0.03 -0.01 -0.1
          0.04 -0.01 -0.1 -0.04 0 -0.1 -0.03 0 -0.1 -0.02 0 -0.1
          -0.01 0 -0.1 0 0 -0.1 0.01 0 -0.1 0.02 0 -0.1
          0.03 0 -0.1 0.04 0 -0.1 -0.04 0.01 -0.1 -0.03 0.01 -0.1
          -0.02 0.01 -0.1 -0.01 0.01 -0.1 0 0.01 -0.1 0.01 0.01 -0.1
          0.02 0.01 -0.1 0.03 0.01 -0.1 0.04 0.01 -0.1 -0.04 0.02 -0.1
          -0.03 0.02 -0.1 -0.02 0.02 -0.1 -0.01 0.02 -0.1 0 0.02 -0.1
          0.01 0.02 -0.1 0.02 0.02 -0.1 0.03 0.02 -0.1 0.04 0.02 -0.1
          -0.04 0.03 -0.1 -0.03 0.03 -0.1 -0.02 0.03 -0.1 -0.01 0.03 -0.1
          0 0.03 -0.1 0.01 0.03 -0.1 0.02 0.03 -0.1 0.03 0.03 -0.1
          0.04 0.03 -0.1 -0.04 0.04 -0.1 -0.03 0.04 -0.1 -0.02 0.04 -0.1
          -0.01 0.04 -0.1 0 0.04 -0.1 0.01 0.04 -0.1 0.02 0.04 -0.1