<?xml version="1.0"?>
<VTKFile type="UnstructuredGrid" version="0.1" byte_order="LittleEndian">
  <UnstructuredGrid>
    <Piece NumberOfCells="960" NumberOfPoints="1296">
      <CellData Scalars="p (Pa)">
        <DataArray type="Float32" Name="p (Pa)" NumberOfComponents="1" format="ascii">
          80881 80849.9 80797.2 80739.1 80692.1 80665.3 80656.3 80655.8 80894.9 80864.1 80812 80754.6
          80708.4 80682.7 80674.7 80674.6 80923.8 80894.2 80844.2 80789.3 80745.4 80721.4 80714.6 80715
          80967.4 80940.3 80894.6 80844.7 80804.9 80783.2 80777 80777.4 81020.9 80997.3 80957.7 80914.6
          80880.2 80861.1 80855.1 80854.9 81075.5 81055.6 81022.4 80986.2 80957.2 80940.5 80934.6 80933.8
          81120.1 81103.3 81075.2 81044.6 81019.9 81005.1 80999.2 80997.9 81145.2 81130.1 81104.9 81077.4
          81054.9 81041.2 81035.3 81033.8 80687.4 80648.5 80582.6 80510.3 80453.5 80424.5 80418.6 80421.3
          80702.1 80663.3 80597.5 80525.4 80469.2 80441.8 80437.4 80441.1 80733.7 80696.1 80632.4 80562.8
          80509 80483.9 80481.3 80485.9 80782.8 80748.4 80690.4 80627.3 80579 80556.4 80554 80558.1
          80844.5 80814.8 80765 80711.4 80670.5 80650.5 80647.5 80650.2 80907.9 80883.4 80842.4 80798.4
          80764.7 80747.4 80743.5 80744.7 80960.2 80939.8 80905.9 80869.5 80841.3 80826 80821.4 80821.6
          80989.7 80971.6 80941.6 80909.4 80884.1 80869.9 80865 80864.5 80401.3 80345.8 80251.7 80148.8
          80070.9 80038 80039.8 80050.2 80417.3 80361.3 80266 80161.6 80083.4 80053.4 80058.7 80071.5
          80454 80399.1 80305.4 80202.8 80126.9 80100.9 80109.8 80124.5 80514.3 80464 80378.9 80286.6
          80219.5 80195.9 80203.8 80217.2 80592.4 80549.6 80477.8 80401.2 80346.4 80325.8 80330.3 80340.1
          80674.2 80639.6 80582 80521.4 80478 80460.1 80461.3 80467.3 80742 80714 80667.9 80619.6
          80584.5 80568.6 80567.3 80570.6 80780.4 80756.1 80716.2 80674.5 80643.6 80628.7 80626.2 80628.1
          80031.6 79949.7 79809.6 79655.7 79542.5 79504.6 79521.3 79545.9 80049.1 79965.2 79820.9 79661.1
          79545 79513.4 79538.4 79568.2 80093 80009.5 79865 79703.9 79588.5 79564.8 79598.4 79633.1
          80170.2 80093.7 79962.5 79819.2 79719.5 79696.8 79726.4 79758.2 80273.6 80209.2 80100.3 79984.5
          79907.4 79888 79907.8 79930.9 80383.5 80332.6 80247.9 80159.9 80101.8 80084.8 80095.9 80110.5
          80475.1 80435.3 80369.8 80302.6 80257.2 80241.6 80246.5 80255.2 80527 80493.3 80438.1 80381.7
          80342.8 80327.7 80329.5 80335.3 79597 79478.2 79273.1 79044.9 78879.1 78834.8 78875.1 78921.7
          79616.1 79492.9 79278 79035.6 78861.8 78830.2 78887.9 78945 79669.2 79544.8 79325.3 79073.2
          78896.7 78880.8 78958 79026 79769.2 79655 79455.8 79234 79085.6 79065.2 79133.5 79197.1
          79906.5 79811.2 79647.6 79471.6 79365.2 79351.4 79396.8 79441.7 80054 79980.3 79856.6 79728.2
          79652.1 79639.5 79666.6 79694.6 80177.1 80121.2 80029.1 79935.7 79877.8 79864.2 79878.8 79895.5
          80246.9 80200.7 80125.3 80049.4 80000.4 79986 79994.3 80005.6 79128.4 78964.3 78677.8 78354.1
          78117.8 78061.4 78131.4 78206.6 79149.9 78978.3 78675 78327.1 78079.7 78043.5 78141.8 78234.4
          79215.2 79040.3 78726.5 78357.2 78112.4 78101 78229.7 78341.2 79343.6 79183.1 78897.7 78572.7
          78367.2 78358.8 78465.4 78574.7 79522.6 79389.5 79155.8 78894.6 78761.5 78760.6 78838 78912.6
          79714.8 79614 79441.8 79259.2 79166.6 79162.8 79210.8 79255.5 79874.8 79800.4 79676.9 79551.6
          79480.4 79470.4 79496.7 79522.9 79965 79904.9 79806.6 79708.2 79648 79634.6 79650.2 79667.7
          78667.7 78454.3 78077.4 77643.3 77316.9 77235.8 77337.3 77445.5 78693.8 78470.3 78071 77605.3
          77264.4 77214.1 77356.1 77487.9 78776 78548.5 78136.2 77646.8 77308 77300.1 77486.2 77641.4
          78939.2 78732 78358.2 77920.8 77642.2 77648 77817.8 77962.9 79164.9 78995.9 78695.4 78355
          78179.2 78189.4 78306.3 78405.6 79404.1 79278.4 79060.7 78822.5 78712.1 78714.9 78783.1 78842.4
          79600.6 79510 79358 79201.7 79116 79107 79142.9 79176.8 79710.7 79638.5 79519.8 79400.3
          79328 79313.2 79333.9 79356 78261.7 78000.9 77534.9 76985 76551.1 76422.7 76552.3 76695.5
          78295.8 78023.8 77532.7 76950.1 76503.7 76417.4 76595.9 76765.2 78400.4 78126.4 77626.4 77032
          76597.2 76569.5 76799.4 76989.8 78603.4 78360.1 77919.7 77403.1 77050 77050.4 77256.6 77422.9
          78876.1 78683.3 78340.5 77951.8 77723.6 77728.9 77863.5 77975.5 79157.3 79017.4 78776 78516
          78368 78360.9 78434.7 78500 79383.7 79283.8 79116.2 78942.4 78837.3 78820.1 78856.6 78892.8
          79509 79429.8 79299.1 79165.5 79080 79058.4 79078 79100.9 77952.7 77654.5 77114.2 76458.7
          75908.9 75704.1 75855.1 76031.6 77998.1 77689.2 77124 76439.9 75886 75735.5 75935.1 76135.7
          78128.2 77821.7 77254.6 76580 76064.2 75991 76233.9 76444.5 78369.8 78107.2 77630.9 77070.6
          76661.8 76630.5 76830.4 77000.3 78681.2 78480.6 78125.8 77724.1 77453.1 77426.8 77549 77658.2
          78992 78849.3 78603.8 78337.2 78162 78132.2 78194.1 78255.2 79236.8 79135.4 78964.8 78784.5
          78663.7 78631.7 78658.9 78691.2 79370.8 79290.2 79156.5 79016.7 78920.3 78887.8 78899.9 78919.3
          77765.6 77448.9 76868.3 76145 75504.7 75222 75366.9 75560.4 77824.5 77501.2 76904 76159.3
          75516.9 75282.8 75474.6 75691.4 77978.9 77666.6 77088.2 76376.3 75796.7 75649.2 75861.7 76071.4
          78247 77985.2 77510 76942.4 76506.3 76415.8 76577 76734.9 78580.1 78384.2 78038.3 77642.3
          77352.1 77285.5 77376.8 77472.5 78903.9 78766.2 78529 78267.1 78078.8 78024 78065 78115.4
          79154.7 79057 78891.8 78713.3 78583.9 78536.4 78549.7 78574.4 79290.7 79212.9 79082.6 78943.2
          78840.5 78796.7 78798.4 78811.8 77694.7 77380 76799.6 76068.2 75408.1 75096.2 75205.4 75390
          77764.4 77446.2 76854.5 76104.9 75440.1 75157.9 75318.7 75536.4 77934.2 77631.8 77066 76357.6
          75770.8 75569.8 75747.1 75959.6 78213.8 77964.2 77508.3 76953.8 76523.6 76393.4 76518.4 76664.6
          78551 78366.7 78039.9 77661 77372.4 77279.8 77343.2 77424.9 78872.8 78744.1 78521.4 78271.7
          78082.8 78011.9 78034.2 78073.7 79119.2 79027.9 78872.6 78701.7 78571 78513.2 78514.1 78531.1
          79252 79179.1 79056.2 78921.9 78817.8 78766.4 78758.7 78766.2 77709 77414.3 76872.2 76192.5
          75585.2 75297.6 75374.9 75531.4 77785.2 77489.8 76941.8 76249 75639 75373.6 75497.1 75687
          77960.9 77683.7 77167.8 76517.7 75981.4 75785.5 75932.3 76112.8 78237.6 78010.1 77595.4 77091.4
          76694.2 76560.1 76657.6 76779.5 78564.6 78396.8 78099.3 77753 77483.3 77384.8 77428.5 77494.4
          78873.3 78755.9 78552.4 78322.2 78142.9 78066.8 78076.2 78105.9 79108.2 79024.6 78881.7 78722.6
          78596.9 78535 78527.5 78538.1 79234.4 79167.4 79053.7 78927.7 78826.5 78771.8 78757.7 78760.5
          77762 77497.5 77015.4 76421.4 75904.7 75672.9 75728.1 75845.3 77841.3 77578.6 77096.3 76497.3
          75980.5 75772.1 75864.5 76003.5 78015.9 77772 77323.9 76770.1 76308.4 76142.8 76255.9 76392.3
          78281.3 78080.8 77719 77285.4 76937.2 76815.1 76887.1 76981 78590.1 78441.1 78178.2 77873.4
          77632.7 77538.7 77567 77617.4 78880 78774.8 78592.4 78385.7 78222 78147.3 78148 78169.4
          79100.3 79024.6 78894.9 78749.5 78632.2 78570.7 78557.9 78563.8 79218.6 79157.5 79053.3 78936.8
          78841.2 78786.4 78768.6 78768 77803.4 77568.2 77144.4 76633 76200.8 76015.8 76054.1 76140
          77883.6 77651.7 77232 76722 76291.9 76130.3 76194.8 76294.1 78054.1 77840.6 77454.3 76988.4
          76607.3 76468.4 76545.3 76643.2 78306.6 78130.4 77816.4 77446.7 77151.9 77042.6 77089.6 77158.4
          78597.1 78464.7 78232.8 77966.5 77755.8 77668.1 77683.3 77720.4 78869.3 78774.5 78610.7 78425.6
          78277.7 78206.4 78200.8 78215.6 79076.3 79007.2 78888.8 78755.8 78647.2 78587.5 78571.6 78574.1
          79187.5 79131.1 79035 78927 78837.1 78783.6 78763.8 78761.1 77789.1 77571.9 77184.5 76724.9
          76345.9 76182.8 76208.6 76276.7 77869.2 77656.2 77274.9 76821.1 76451.8 76307 76350.2 76426.7
          78036.5 77840.9 77490.9 77075.7 76749.8 76628 76677.7 76752.2 78280.5 78118.8 77832.8 77501
          77241 77140 77170.6 77224.2 78559.8 78437.2 78223.7 77980.5 77788.9 77705.6 77712.7 77741.8
          78821.3 78732.6 78579.8 78407.7 78269.8 78201 78191.9 78202.9 79020.3 78955 78843.2 78717.6
          78614.5 78556.4 78538.9 78539.6 79127.3 79073.7 78982.2 78879.3 78793 78740.6 78720 78716.2
        </DataArray>
        <DataArray type="Float32" Name="saturation" NumberOfComponents="1" format="ascii">
          0.420202 0.419982 0.41961 0.419202 0.418873 0.418687 0.418624 0.41862 0.4203 0.420082 0.419714 0.419311
          0.418988 0.418808 0.418752 0.418752 0.420506 0.420295 0.419942 0.419554 0.419246 0.419079 0.419031 0.419034
          0.420816 0.420623 0.420298 0.419945 0.419664 0.419512 0.419468 0.419471 0.421198 0.42103 0.420747 0.42044
          0.420196 0.420061 0.420018 0.420017 0.42159 0.421447 0.421209 0.42095 0.420743 0.420625 0.420582 0.420577
          0.421912 0.42179 0.421588 0.421368 0.421191 0.421085 0.421043 0.421034 0.422093 0.421984 0.421802 0.421604
          0.421442 0.421344 0.421301 0.421291 0.418841 0.41857 0.418113 0.417614 0.417224 0.417026 0.416985 0.417004
          0.418943 0.418673 0.418216 0.417718 0.417332 0.417144 0.417114 0.417139 0.419164 0.418902 0.418458 0.417976
          0.417605 0.417433 0.417415 0.417446 0.419509 0.419267 0.418862 0.418423 0.418088 0.417931 0.417915 0.417944
          0.419943 0.419734 0.419384 0.419008 0.418723 0.418584 0.418563 0.418582 0.420393 0.420218 0.419929 0.419619
          0.419382 0.41926 0.419233 0.419242 0.420764 0.420619 0.420378 0.420121 0.419921 0.419813 0.419781 0.419782
          0.420975 0.420846 0.420632 0.420403 0.420224 0.420123 0.420088 0.420085 0.416867 0.41649 0.415853 0.415162
          0.414642 0.414424 0.414435 0.414505 0.416976 0.416595 0.41595 0.415247 0.414726 0.414526 0.414561 0.414646
          0.417228 0.416852 0.416216 0.415523 0.415016 0.414842 0.414901 0.414999 0.417642 0.417296 0.416714 0.416088
          0.415636 0.415477 0.415531 0.415621 0.418181 0.417885 0.417391 0.416867 0.416494 0.416354 0.416385 0.416451
          0.418749 0.418508 0.418109 0.417691 0.417392 0.41727 0.417278 0.417319 0.419222 0.419027 0.418705 0.41837
          0.418126 0.418016 0.418007 0.41803 0.419492 0.419321 0.419042 0.418751 0.418536 0.418433 0.418415 0.418428
          0.414381 0.41384 0.412922 0.411924 0.411198 0.410957 0.411063 0.41122 0.414497 0.413942 0.412996 0.41196
          0.411214 0.411012 0.411172 0.411363 0.414789 0.414235 0.413284 0.412236 0.411493 0.411341 0.411556 0.411779
          0.415305 0.414794 0.413925 0.412985 0.412337 0.41219 0.412381 0.412587 0.416001 0.415567 0.414838 0.41407
          0.413562 0.413435 0.413565 0.413716 0.416746 0.4164 0.415827 0.415236 0.414848 0.414735 0.414809 0.414906
          0.417372 0.417099 0.416653 0.416196 0.41589 0.415785 0.415818 0.415877 0.417729 0.417497 0.417119 0.416734
          0.416469 0.416367 0.416379 0.416418 0.411547 0.410789 0.409494 0.408077 0.407062 0.406793 0.407038 0.407322
          0.41167 0.410882 0.409525 0.40802 0.406957 0.406765 0.407116 0.407464 0.412012 0.411213 0.409821 0.408252
          0.407169 0.407073 0.407544 0.407961 0.412659 0.41192 0.410646 0.40925 0.408328 0.408202 0.408624 0.409019
          0.413556 0.412932 0.411872 0.410746 0.410073 0.409986 0.410272 0.410557 0.41453 0.414042 0.413229 0.412393
          0.411901 0.41182 0.411995 0.412175 0.415352 0.414978 0.414365 0.413748 0.413368 0.413279 0.413374 0.413484
          0.415821 0.415509 0.415005 0.414499 0.414175 0.414079 0.414134 0.414209 0.408593 0.407582 0.405846 0.403928
          0.402554 0.40223 0.402632 0.403067 0.408726 0.407668 0.405829 0.403769 0.402335 0.402127 0.402693 0.403229
          0.409132 0.408049 0.406138 0.403945 0.402523 0.402457 0.403201 0.403852 0.409937 0.408932 0.407175 0.405218
          0.404004 0.403955 0.404582 0.40523 0.411071 0.410226 0.408763 0.407157 0.40635 0.406344 0.406813 0.407266
          0.412306 0.411657 0.410557 0.409407 0.40883 0.408806 0.409105 0.409384 0.413348 0.412862 0.412062 0.411256
          0.410802 0.410739 0.410906 0.411073 0.413941 0.413545 0.412903 0.412264 0.411875 0.411789 0.411889 0.412002
          0.405786 0.404516 0.402322 0.399864 0.398065 0.397624 0.398176 0.398769 0.405942 0.404611 0.402285 0.399653
          0.397779 0.397506 0.398279 0.399002 0.406437 0.405074 0.40266 0.399884 0.398016 0.397973 0.398993 0.399854
          0.407429 0.406172 0.403952 0.401427 0.399858 0.399891 0.400844 0.401667 0.408819 0.407776 0.405952 0.403932
          0.402909 0.402968 0.403648 0.40423 0.410318 0.409528 0.408174 0.406719 0.406052 0.406069 0.40648 0.406839
          0.411571 0.410991 0.410027 0.409048 0.408516 0.40846 0.408682 0.408893 0.41228 0.411814 0.411053 0.410294
          0.409838 0.409746 0.409876 0.410015 0.403388 0.401884 0.399262 0.396275 0.393995 0.393332 0.394001 0.394746
          0.403587 0.402014 0.39925 0.396089 0.393749 0.393305 0.394227 0.395112 0.404199 0.402604 0.39977 0.396526
          0.394233 0.39409 0.395291 0.3963 0.405401 0.403962 0.40142 0.398536 0.396622 0.396625 0.397736 0.398645
          0.407044 0.405879 0.403848 0.401603 0.400313 0.400343 0.401102 0.401738 0.408772 0.407908 0.406437 0.404882
          0.404009 0.403967 0.404401 0.404787 0.41019 0.409561 0.408517 0.407448 0.406808 0.406704 0.406925 0.407145
          0.410985 0.410481 0.409657 0.408823 0.408294 0.40816 0.408281 0.408422 0.401608 0.399927 0.396967 0.393517
          0.390736 0.389724 0.390469 0.391348 0.401868 0.400121 0.39702 0.39342 0.390622 0.389879 0.390866 0.391871
          0.402614 0.400865 0.397725 0.394144 0.391511 0.391145 0.392368 0.393444 0.404019 0.402493 0.399795 0.396733
          0.39457 0.394407 0.395455 0.396357 0.405867 0.404672 0.4026 0.400316 0.398811 0.398666 0.399341 0.399948
          0.407752 0.406881 0.405403 0.403828 0.40281 0.402637 0.402995 0.40335 0.409267 0.408636 0.407585 0.406488
          0.405762 0.40557 0.405733 0.405926 0.410108 0.409602 0.408767 0.407903 0.407313 0.407115 0.407189 0.407307
          0.400549 0.398788 0.395655 0.391918 0.388753 0.387396 0.388088 0.389023 0.400881 0.399076 0.395844 0.39199
          0.388812 0.387686 0.388607 0.389662 0.401757 0.399995 0.396827 0.393094 0.39018 0.389456 0.390502 0.391547
          0.403302 0.401794 0.399125 0.396048 0.393762 0.393297 0.394128 0.394953 0.405262 0.404104 0.402097 0.399859
          0.398257 0.397894 0.398392 0.398917 0.407213 0.406378 0.404959 0.403419 0.40233 0.402015 0.40225 0.40254
          0.408756 0.408151 0.407139 0.40606 0.405285 0.405003 0.405082 0.405228 0.409604 0.409118 0.40831 0.407453
          0.406827 0.406562 0.406572 0.406654 0.400151 0.398409 0.395292 0.391532 0.388286 0.3868 0.387317 0.388199
          0.400543 0.398773 0.395582 0.391716 0.38844 0.387092 0.387857 0.388906 0.401503 0.399801 0.396708 0.392998
          0.390053 0.389069 0.389936 0.390988 0.403109 0.401674 0.399115 0.396109 0.393852 0.393181 0.393825 0.394585
          0.405089 0.404001 0.402107 0.399963 0.398368 0.397863 0.398208 0.398656 0.407024 0.406245 0.404914 0.403446
          0.402353 0.401946 0.402074 0.4023 0.408536 0.407973 0.407022 0.40599 0.405208 0.404865 0.40487 0.404971
          0.409362 0.408908 0.408146 0.407323 0.40669 0.406379 0.406333 0.406378 0.400231 0.398597 0.395676 0.392158
          0.389144 0.387756 0.388127 0.388882 0.40066 0.399013 0.396045 0.392445 0.389406 0.38812 0.388716 0.389641
          0.401655 0.40009 0.397256 0.393822 0.391097 0.390125 0.390852 0.391756 0.403248 0.401936 0.399598 0.396845
          0.394739 0.394041 0.394548 0.395186 0.40517 0.404178 0.402448 0.400478 0.398977 0.398436 0.398676 0.399038
          0.407027 0.406316 0.405097 0.403741 0.402699 0.402261 0.402315 0.402486 0.408468 0.407952 0.407078 0.406115
          0.405362 0.404994 0.404949 0.405013 0.409252 0.408835 0.408131 0.407358 0.406743 0.406412 0.406327 0.406344
          0.400529 0.399056 0.396437 0.393325 0.390715 0.389572 0.389843 0.390421 0.400976 0.399504 0.396871 0.393716
          0.391092 0.390059 0.390515 0.391208 0.401969 0.400585 0.398103 0.395137 0.392747 0.391907 0.39248 0.393176
          0.403502 0.402342 0.400288 0.397893 0.39602 0.395374 0.395755 0.396254 0.405322 0.404439 0.402903 0.401158
          0.399806 0.399283 0.39944 0.39972 0.407068 0.40643 0.405336 0.404113 0.403157 0.402724 0.402728 0.402852
          0.408419 0.407952 0.407158 0.406277 0.405573 0.405206 0.40513 0.405165 0.409154 0.408773 0.408129 0.407414
          0.406832 0.4065 0.406392 0.406389 0.400762 0.399447 0.39713 0.39442 0.3922 0.391269 0.391461 0.391893
          0.401215 0.399912 0.397603 0.394885 0.392663 0.391844 0.392169 0.392674 0.402188 0.400972 0.398818 0.396293
          0.394286 0.393567 0.393964 0.394473 0.403649 0.402627 0.400835 0.398776 0.39717 0.396583 0.396834 0.397205
          0.405364 0.404578 0.40322 0.401687 0.400494 0.400003 0.400088 0.400295 0.407002 0.406428 0.405445 0.404347
          0.403481 0.403067 0.403034 0.40312 0.40827 0.407845 0.407121 0.406315 0.405663 0.405306 0.405212 0.405226
          0.40896 0.40861 0.408016 0.407354 0.406807 0.406483 0.406364 0.406347 0.400682 0.399467 0.397346 0.3949
          0.392938 0.392109 0.39224 0.392585 0.401134 0.399937 0.397836 0.395406 0.393482 0.39274 0.39296 0.393353
          0.402087 0.400974 0.399019 0.39676 0.395031 0.394394 0.394653 0.395043 0.403498 0.40256 0.400928 0.399075
          0.397652 0.397106 0.397271 0.397561 0.405142 0.404416 0.403167 0.401767 0.400681 0.400213 0.400253 0.400416
          0.406711 0.406175 0.405261 0.404242 0.403435 0.403035 0.402982 0.403046 0.407925 0.407525 0.406844 0.406085
          0.405467 0.405121 0.405017 0.405021 0.408586 0.408255 0.407692 0.407063 0.40654 0.406223 0.4061 0.406077
        </DataArray>
        <DataArray type="Float32" Name="process rank" NumberOfComponents="1" format="ascii">
          0 0 0 0 0 0 0 0 0 0 0 0
          0 0 0 0 0 0 0 0 0 0 0 0
          0 0 0 0 0 0 0 0 0 0 0 0
          0 0 0 0 0 0 0 0 0 0 0 0
          0 0 0 0 0 0 0 0 0 0 0 0
          0 0 0 0 0 0 0 0 0 0 0 0
          0 0 0 0 0 0 0 0 0 0 0 0
          0 0 0 0 0 0 0 0 0 0 0 0
          0 0 0 0 0 0 0 0 0 0 0 0
          0 0 0 0 0 0 0 0 0 0 0 0
          0 0 0 0 0 0 0 0 0 0 0 0
          0 0 0 0 0 0 0 0 0 0 0 0
          0 0 0 0 0 0 0 0 0 0 0 0
          0 0 0 0 0 0 0 0 0 0 0 0
          0 0 0 0 0 0 0 0 0 0 0 0
          0 0 0 0 0 0 0 0 0 0 0 0
          0 0 0 0 0 0 0 0 0 0 0 0
          0 0 0 0 0 0 0 0 0 0 0 0
          0 0 0 0 0 0 0 0 0 0 0 0
          0 0 0 0 0 0 0 0 0 0 0 0
          0 0 0 0 0 0 0 0 0 0 0 0
          0 0 0 0 0 0 0 0 0 0 0 0
          0 0 0 0 0 0 0 0 0 0 0 0
          0 0 0 0 0 0 0 0 0 0 0 0
          0 0 0 0 0 0 0 0 0 0 0 0
          0 0 0 0 0 0 0 0 0 0 0 0
          0 0 0 0 0 0 0 0 0 0 0 0
          0 0 0 0 0 0 0 0 0 0 0 0
          0 0 0 0 0 0 0 0 0 0 0 0
          0 0 0 0 0 0 0 0 0 0 0 0
          0 0 0 0 0 0 0 0 0 0 0 0
          0 0 0 0 0 0 0 0 0 0 0 0
          0 0 0 0 0 0 0 0 0 0 0 0
          0 0 0 0 0 0 0 0 0 0 0 0
          0 0 0 0 0 0 0 0 0 0 0 0
          0 0 0 0 0 0 0 0 0 0 0 0
          0 0 0 0 0 0 0 0 0 0 0 0
          0 0 0 0 0 0 0 0 0 0 0 0
          0 0 0 0 0 0 0 0 0 0 0 0
          0 0 0 0 0 0 0 0 0 0 0 0
          0 0 0 0 0 0 0 0 0 0 0 0
          0 0 0 0 0 0 0 0 0 0 0 0
          0 0 0 0 0 0 0 0 0 0 0 0
          0 0 0 0 0 0 0 0 0 0 0 0
          0 0 0 0 0 0 0 0 0 0 0 0
          0 0 0 0 0 0 0 0 0 0 0 0
          0 0 0 0 0 0 0 0 0 0 0 0
          0 0 0 0 0 0 0 0 0 0 0 0
          0 0 0 0 0 0 0 0 0 0 0 0
          0 0 0 0 0 0 0 0 0 0 0 0
          0 0 0 0 0 0 0 0 0 0 0 0
          0 0 0 0 0 0 0 0 0 0 0 0
          0 0 0 0 0 0 0 0 0 0 0 0
          0 0 0 0 0 0 0 0 0 0 0 0
          0 0 0 0 0 0 0 0 0 0 0 0
          0 0 0 0 0 0 0 0 0 0 0 0
          0 0 0 0 0 0 0 0 0 0 0 0
          0 0 0 0 0 0 0 0 0 0 0 0
          0 0 0 0 0 0 0 0 0 0 0 0
          0 0 0 0 0 0 0 0 0 0 0 0
          0 0 0 0 0 0 0 0 0 0 0 0
          0 0 0 0 0 0 0 0 0 0 0 0
          0 0 0 0 0 0 0 0 0 0 0 0
          0 0 0 0 0 0 0 0 0 0 0 0
          0 0 0 0 0 0 0 0 0 0 0 0
          0 0 0 0 0 0 0 0 0 0 0 0
          0 0 0 0 0 0 0 0 0 0 0 0
          0 0 0 0 0 0 0 0 0 0 0 0
          0 0 0 0 0 0 0 0 0 0 0 0
          0 0 0 0 0 0 0 0 0 0 0 0
          0 0 0 0 0 0 0 0 0 0 0 0
          0 0 0 0 0 0 0 0 0 0 0 0
          0 0 0 0 0 0 0 0 0 0 0 0
          0 0 0 0 0 0 0 0 0 0 0 0
          0 0 0 0 0 0 0 0 0 0 0 0
          0 0 0 0 0 0 0 0 0 0 0 0
          0 0 0 0 0 0 0 0 0 0 0 0
          0 0 0 0 0 0 0 0 0 0 0 0
          0 0 0 0 0 0 0 0 0 0 0 0
          0 0 0 0 0 0 0 0 0 0 0 0
        </DataArray>
      </CellData>
      <Points>
        <DataArray type="Float32" Name="Coordinates" NumberOfComponents="3" format="ascii">
          -0.04 -0.04 -0.15 -0.03 -0.04 -0.15 -0.04 -0.03 -0.15 -0.03 -0.03 -0.15
          -0.04 -0.04 -0.14 -0.03 -0.04 -0.14 -0.04 -0.03 -0.14 -0.03 -0.03 -0.14
          -0.02 -0.04 -0.15 -0.02 -0.03 -0.15 -0.02 -0.04 -0.14 -0.02 -0.03 -0.14
          -0.01 -0.04 -0.15 -0.01 -0.03 -0.15 -0.01 -0.04 -0.14 -0.01 -0.03 -0.14
          0 -0.04 -0.15 0 -0.03 -0.15 0 -0.04 -0.14 0 -0.03 -0.14
          0.01 -0.04 -0.15 0.01 -0.03 -0.15 0.01 -0.04 -0.14 0.01 -0.03 -0.14
          0.02 -0.04 -0.15 0.02 -0.03 -0.15 0.02 -0.04 -0.14 0.02 -0.03 -0.14
          0.03 -0.04 -0.15 0.03 -0.03 -0.15 0.03 -0.04 -0.14 0.03 -0.03 -0.14
          0.04 -0.04 -0.15 0.04 -0.03 -0.15 0.04 -0.04 -0.14 0.04 -0.03 -0.14
          -0.04 -0.02 -0.15 -0.03 -0.02 -0.15 -0.04 -0.02 -0.14 -0.03 -0.02 -0.14
          -0.02 -0.02 -0.15 -0.02 -0.02 -0.14 -0.01 -0.02 -0.15 -0.01 -0.02 -0.14
          0 -0.02 -0.15 0 -0.02 -0.14 0.01 -0.02 -0.15 0.01 -0.02 -0.14
          0.02 -0.02 -0.15 0.02 -0.02 -0.14 0.03 -0.02 -0.15 0.03 -0.02 -0.14
          0.04 -0.02 -0.15 0.04 -0.02 -0.14 -0.04 -0.01 -0.15 -0.03 -0.01 -0.15
          -0.04 -0.01 -0.14 -0.03 -0.01 -0.14 -0.02 -0.01 -0.15 -0.02 -0.01 -0.14
          -0.01 -0.01 -0.15 -0.01 -0.01 -0.14 0 -0.01 -0.15 0 -0.01 -0.14
          0.01 -0.01 -0.15 0.01 -0.01 -0.14 0.02 -0.01 -0.15 0.02 -0.01 -0.14
          0.03 -0.01 -0.15 0.03 -0.01 -0.14 0.04 -0.01 -0.15 0.04 -0.01 -0.14
          -0.04 0 -0.15 -0.03 0 -0.15 -0.04 0 -0.14 -0.03 0 -0.14
          -0.02 0 -0.15 -0.02 0 -0.14 -0.01 0 -0.15 -0.01 0 -0.14
          0 0 -0.15 0 0 -0.14 0.01 0 -0.15 0.01 0 -0.14
          0.02 0 -0.15 0.02 0 -0.14 0.03 0 -0.15 0.03 0 -0.14
          0.04 0 -0.15 0.04 0 -0.14 -0.04 0.01 -0.15 -0.03 0.01 -0.15
          -0.04 0.01 -0.14 -0.03 0.01 -0.14 -0.02 0.01 -0.15 -0.02 0.01 -0.14
          -0.01 0.01 -0.15 -0.01 0.01 -0.14 0 0.01 -0.15 0 0.01 -0.14
          0.01 0.01 -0.15 0.01 0.01 -0.14 0.02 0.01 -0.15 0.02 0.01 -0.14
          0.03 0.01 -0.15 0.03 0.01 -0.14 0.04 0.01 -0.15 0.04 0.01 -0.14
          -0.04 0.02 -0.15 -0.03 0.02 -0.15 -0.04 0.02 -0.14 -0.03 0.02 -0.14
          -0.02 0.02 -0.15 -0.02 0.02 -0.14 -0.01 0.02 -0.15 -0.01 0.02 -0.14
          0 0.02 -0.15 0 0.02 -0.14 0.01 0.02 -0.15 0.01 0.02 -0.14
          0.02 0.02 -0.15 0.02 0.02 -0.14 0.03 0.02 -0.15 0.03 0.02 -0.14
          0.04 0.02 -0.15 0.04 0.02 -0.14 -0.04 0.03 -0.15 -0.03 0.03 -0.15
          -0.04 0.03 -0.14 -0.03 0.03 -0.14 -0.02 0.03 -0.15 -0.02 0.03 -0.14
          -0.01 0.03 -0.15 -0.01 0.03 -0.14 0 0.03 -0.15 0 0.03 -0.14
          0.01 0.03 -0.15 0.01 0.03 -0.14 0.02 0.03 -0.15 0.02 0.03 -0.14
          0.03 0.03 -0.15 0.03 0.03 -0.14 0.04 0.03 -0.15 0.04 0.03 -0.14
          -0.04 0.04 -0.15 -0.03 0.04 -0.15 -0.04 0.04 -0.14 -0.03 0.04 -0.14
          -0.02 0.04 -0.15 -0.02 0.04 -0.14 -0.01 0.04 -0.15 -0.01 0.04 -0.14
          0 0.04 -0.15 0 0.04 -0.14 0.01 0.04 -0.15 0.01 0.04 -0.14
          0.02 0.04 -0.15 0.02 0.04 -0.14 0.03 0.04 -0.15 0.03 0.04 -0.14
          0.04 0.04 -0.15 0.04 0.04 -0.14 -0.04 -0.04 -0.13 -0.03 -0.04 -0.13
          -0.04 -0.03 -0.13 -0.03 -0.03 -0.13 -0.02 -0.04 -0.13 -0.02 -0.03 -0.13
          -0.01 -0.04 -0.13 -0.01 -0.03 -0.13 0 -0.04 -0.13 0 -0.03 -0.13
          0.01 -0.04 -0.13 0.01 -0.03 -0.13 0.02 -0.04 -0.13 0.02 -0.03 -0.13
          0.03 -0.04 -0.13 0.03 -0.03 -0.13 0.04 -0.04 -0.13 0.04 -0.03 -0.13
          -0.04 -0.02 -0.13 -0.03 -0.02 -0.13 -0.02 -0.02 -0.13 -0.01 -0.02 -0.13
          0 -0.02 -0.13 0.01 -0.02 -0.13 0.02 -0.02 -0.13 0.03 -0.02 -0.13
          0.04 -0.02 -0.13 -0.04 -0.01 -0.13 -0.03 -0.01 -0.13 -0.02 -0.01 -0.13
          -0.01 -0.01 -0.13 0 -0.01 -0.13 0.01 -0.01 -0.13 0.02 -0.01 -0.13
          0.03 -0.01 -0.13 0.04 -0.01 -0.13 -0.04 0 -0.13 -0.03 0 -0.13
          -0.02 0 -0.13 -0.01 0 -0.13 0 0 -0.13 0.01 0 -0.13
          0.02 0 -0.13 0.03 0 -0.13 0.04 0 -0.13 -0.04 0.01 -0.13
          -0.03 0.01 -0.13 -0.02 0.01 -0.13 -0.01 0.01 -0.13 0 0.01 -0.13
          0.01 0.01 -0.13 0.02 0.01 -0.13 0.03 0.01 -0.13 0.04 0.01 -0.13
          -0.04 0.02 -0.13 -0.03 0.02 -0.13 -0.02 0.02 -0.13 -0.01 0.02 -0.13
          0 0.02 -0.13 0.01 0.02 -0.13 0.02 0.02 -0.13 0.03 0.02 -0.13
          0.04 0.02 -0.13 -0.04 0.03 -0.13 -0.03 0.03 -0.13 -0.02 0.03 -0.13
          -0.01 0.03 -0.13 0 0.03 -0.13 0.01 0.03 -0.13 0.02 0.03 -0.13
          0.03 0.03 -0.13 0.04 0.03 -0.13 -0.04 0.04 -0.13 -0.03 0.04 -0.13
          -0.02 0.04 -0.13 -0.01 0.04 -0.13 0 0.04 -0.13 0.01 0.04 -0.13
          0.02 0.04 -0.13 0.03 0.04 -0.13 0.04 0.04 -0.13 -0.04 -0.04 -0.12
          -0.03 -0.04 -0.12 -0.04 -0.03 -0.12 -0.03 -0.03 -0.12 -0.02 -0.04 -0.12
          -0.02 -0.03 -0.12 -0.01 -0.04 -0.12 -0.01 -0.03 -0.12 0 -0.04 -0.12
          0 -0.03 -0.12 0.01 -0.04 -0.12 0.01 -0.03 -0.12 0.02 -0.04 -0.12
          0.02 -0.03 -0.12 0.03 -0.04 -0.12 0.03 -0.03 -0.12 0.04 -0.04 -0.12
          0.04 -0.03 -0.12 -0.04 -0.02 -0.12 -0.03 -0.02 -0.12 -0.02 -0.02 -0.12
          -0.01 -0.02 -0.12 0 -0.02 -0.12 0.01 -0.02 -0.12 0.02 -0.02 -0.12
          0.03 -0.02 -0.12 0.04 -0.02 -0.12 -0.04 -0.01 -0.12 -0.03 -0.01 -0.12
          -0.02 -0.01 -0.12 -0.01 -0.01 -0.12 0 -0.01 -0.12 0.01 -0.01 -0.12
          0.02 -0.01 -0.12 0.03 -0.01 -0.12 0.04 -0.01 -0.12 -0.04 0 -0.12
          -0.03 0 -0.12 -0.02 0 -0.12 -0.01 0 -0.12 0 0 -0.12
          0.01 0 -0.12 0.02 0 -0.12 0.03 0 -0.12 0.04 0 -0.12
          -0.04 0.01 -0.12 -0.03 0.01 -0.12 -0.02 0.01 -0.12 -0.01 0.01 -0.12
          0 0.01 -0.12 0.01 0.01 -0.12 0.02 0.01 -0.12 0.03 0.01 -0.12
          0.04 0.01 -0.12 -0.04 0.02 -0.12 -0.03 0.02 -0.12 -0.02 0.02 -0.12
          -0.01 0.02 -0.12 0 0.02 -0.12 0.01 0.02 -0.12 0.02 0.02 -0.12
          0.03 0.02 -0.12 0.04 0.02 -0.12 -0.04 0.03 -0.12 -0.03 0.03 -0.12
          -0.02 0.03 -0.12 -0.01 0.03 -0.12 0 0.03 -0.12 0.01 0.03 -0.12
          0.02 0.03 -0.12 0.03 0.03 -0.12 0.04 0.03 -0.12 -0.04 0.04 -0.12
          -0.03 0.04 -0.12 -0.02 0.04 -0.12 -0.01 0.04 -0.12 0 0.04 -0.12
          0.01 0.04 -0.12 0.02 0.04 -0.12 0.03 0.04 -0.12 0.04 0.04 -0.12
          -0.04 -0.04 -0.11 -0.03 -0.04 -0.11 -0.04 -0.03 -0.11 -0.03 -0.03 -0.11
          -0.02 -0.04 -0.11 -0.02 -0.03 -0.11 -0.01 -0.04 -0.11 -0.01 -0.03 -0.11
          0 -0.04 -0.11 0 -0.03 -0.11 0.01 -0.04 -0.11 0.01 -0.03 -0.11
          0.02 -0.04 -0.11 0.02 -0.03 -0.11 0.03 -0.04 -0.11 0.03 -0.03 -0.11
          0.04 -0.04 -0.11 0.04 -0.03 -0.11 -0.04 -0.02 -0.11 -0.03 -0.02 -0.11
          -0.02 -0.02 -0.11 -0.01 -0.02 -0.11 0 -0.02 -0.11 0.01 -0.02 -0.11
          0.02 -0.02 -0.11 0.03 -0.02 -0.11 0.04 -0.02 -0.11 -0.04 -0.01 -0.11
          -0.03 -0.01 -0.11 -0.02 -0.01 -0.11 -0.01 -0.01 -0.11 0 -0.01 -0.11
          0.01 -0.01 -0.11 0.02 -0.01 -0.11 0.03 -0.01 -0.11 0.04 -0.01 -0.11
          -0.04 0 -0.11 -0.03 0 -0.11 -0.02 0 -0.11 -0.01 0 -0.11
          0 0 -0.11 0.01 0 -0.11 0.02 0 -0.11 0.03 0 -0.11
          0.04 0 -0.11 -0.04 0.01 -0.11 -0.03 0.01 -0.11 -0.02 0.01 -0.11
          -0.01 0.01 -0.11 0 0.01 -0.11 0.01 0.01 -0.11 0.02 0.01 -0.11
          0.03 0.01 -0.11 0.04 0.01 -0.11 -0.04 0.02 -0.11 -0.03 0.02 -0.11
          -0.02 0.02 -0.11 -0.01 0.02 -0.11 0 0.02 -0.11 0.01 0.02 -0.11
          0.02 0.02 -0.11 0.03 0.02 -0.11 0.04 0.02 -0.11 -0.04 0.03 -0.11
          -0.03 0.03 -0.11 -0.02 0.03 -0.11 -0.01 0.03 -0.11 0 0.03 -0.11
          0.01 0.03 -0.11 0.02 0.03 -0.11 0.03 0.03 -0.11 0.04 0.03 -0.11
          -0.04 0.04 -0.11 -0.03 0.04 -0.11 -0.02 0.04 -0.11 -0.01 0.04 -0.11
          0 0.04 -0.11 0.01 0.04 -0.11 0.02 0.04 -0.11 0.03 0.04 -0.11
          0.04 0.04 -0.11 -0.04 -0.04 -0.1 -0.03 -0.04 -0.1 -0.04 -0.03 -0.1
          -0.03 -0.03 -0.1 -0.02 -0.04 -0.1 -0.02 -0.03 -0.1 -0.01 -0.04 -0.1
          -0.01 -0.03 -0.1 0 -0.04 -0.1 0 -0.03 -0.1 0.01 -0.04 -0.1
          0.01 -0.03 -0.1 0.02 -0.04 -0.1 0.02 -0.03 -0.1 0.03 -0.04 -0.1
          0.03 -0.03 -0.1 0.04 -0.04 -0.1 0.04 -0.03 -0.1 -0.04 -0.02 -0.1
          -0.03 -0.02 -0.1 -0.02 -0.02 -0.1 -0.01 -0.02 -0.1 0 -0.02 -0.1
          0.01 -0.02 -0.1 0.02 -0.02 -0.1 0.03 -0.02 -0.1 0.04 -0.02 -0.1
          -0.04 -0.01 -0.1 -0.03 -0.01 -0.1 -0.02 -0.01 -0.1 -0.01 -0.01 -0.1
          0 -0.01 -0.1 0.01 -0.01 -0.1 0.02 -0.01 -0.1 0.03 -0.01 -0.1
          0.04 -0.01 -0.1 -0.04 0 -0.1 -0.03 0 -0.1 -0.02 0 -0.1
          -0.01 0 -0.1 0 0 -0.1 0.01 0 -0.1 0.02 0 -0.1
          0.03 0 -0.1 0.04 0 -0.1 -0.04 0.01 -0.1 -0.03 0.01 -0.1
          -0.02 0.01 -0.1 -0.01 0.01 -0.1 0 0.01 -0.1 0.01 0.01 -0.1
          0.02 0.01 -0.1 0.03 0.01 -0.1 0.04 0.01 -0.1 -0.04 0.02 -0.1
          -0.03 0.02 -0.1 -0.02 0.02 -0.1 -0.01 0.02 -0.1 0 0.02 -0.1
          0.01 0.02 -0.1 0.02 0.02 -0.1 0.03 0.02 -0.1 0.04 0.02 -0.1
          -0.04 0.03 -0.1 -0.03 0.03 -0.1 -0.02 0.03 -0.1 -0.01 0.03 -0.1
          0 0.03 -0.1 0.01 0.03 -0.1 0.02 0.03 -0.1 0.03 0.03 -0.1
          0.04 0.03 -0.1 -0.04 0.04 -0.1 -0.03 0.04 -0.1 -0.02 0.04 -0.1
          -0.01 0.04 -0.1 0 0.04 -0.1 0.01 0.04 -0.1 0.02 0.04 -0.1