<?xml version="1.0"?>
<VTKFile type="UnstructuredGrid" version="0.1" byte_order="LittleEndian">
  <UnstructuredGrid>
    <Piece NumberOfCells="960" NumberOfPoints="1296">
      <CellData Scalars="p (Pa)">
        <DataArray type="Float32" Name="p (Pa)" NumberOfComponents="1" format="ascii">
          36691.8 36685.5 36670.3 36647.7 36633 36645.8 36667 36680 36689.7 36680.1 36656.7 36620.7
          36595.7 36616.4 36650.1 36670.6 36687.7 36675 36643.8 36594.6 36558 36585.7 36631.4 36659.4
          36688.3 36677.2 36650.9 36611.4 36583.7 36600.2 36635.6 36659.7 36690.3 36682.6 36665.5 36642.6
          36629.7 36638.6 36658 36672 36692.5 36688.3 36679.3 36668.7 36664.8 36669.6 36678.2 36684.4
          36694.3 36692.3 36688.3 36684.3 36683.6 36685.9 36689.3 36691.6 36695.2 36694.2 36692.4 36690.8
          36690.9 36692.1 36693.4 36694.3 36585.5 36566.7 36520.8 36450.2 36401.9 36444.7 36511.3 36550.9
          36579.1 36549.7 36476 36356.8 36266.6 36343.5 36455.6 36520.7 36572.5 36532.5 36430.2 36257.4
          36111.1 36227.3 36389.2 36482.9 36573.9 36538.6 36452.7 36319.3 36218.5 36277.4 36399.1 36480.7
          36579.3 36554.1 36496.8 36419.5 36379.5 36410.5 36474.6 36520.8 36586.3 36571.6 36540.8 36505.1
          36495.4 36512.8 36541 36561.1 36592 36585.1 36571.3 36557.5 36556.8 36565.6 36576.6 36584
          36594.9 36591.6 36585.4 36579.9 36580.7 36585.1 36589.8 36592.6 36463.1 36406.4 36265 36039.5
          35873.7 36024.3 36237.5 36359.6 36442.7 36351.1 36113.1 35703 35349.7 35662 36049.8 36261.9
          36420.7 36291 35942.8 35293.5 34618.7 35185.9 35802.6 36129.7 36423.3 36307.5 36018.2 35545.3
          35150.7 35368 35814.1 36108.5 36437.9 36351 36149.6 35872 35752.6 35865.6 36085.6 36245.7
          36459.8 36407.9 36296.5 36167.2 36151.4 36218.5 36313.2 36380.7 36479.2 36454.3 36404.4 36354.7
          36359.7 36393.6 36430.8 36455.2 36489.3 36477.5 36455.1 36435.5 36441 36457.8 36473.6 36483
          36311.9 36170.7 35810.4 35207.5 34718.2 35175.8 35745.3 36056.9 36257.9 36019.6 35374.2 34158
          32894.3 34059.9 35212.9 35793.1 36195.4 35840.4 34819.1 32599.7 29450.3 32266.8 34406.4 35399.2
          36196.4 35874.4 35039.5 33567.6 32162.5 32823.1 34306.2 35277.5 36226.5 35967.1 35337.4 34412
          34192.2 34556.9 35203.5 35691.3 36285 36125.3 35768.4 35336.7 35382.1 35613.6 35884.3 36078.6
          36341 36264.4 36106.1 35945.1 35991.9 36107.2 36214.5 36283.2 36370.9 36334.9 36265.2 36203.8
          36230 36285.4 36331.4 36357.7 36128.1 35850.6 35128 33855.9 32702.4 33814.7 35008.8 35632.4
          36014.1 35522.1 34126.5 31191.6 27390 31063.7 33815.1 35073 35871.1 35087.3 32617.8 25931.4
          11460.6 25189.3 31626 34124.1 35856.2 35124.1 33124.3 29219.5 25040.8 26182.9 30586.8 33600.4
          35896.9 35243.1 33491.1 30400.7 30829.7 31890 33392.9 34689.3 36025.7 35613.2 34613.8 33224.7
          33798.8 34512.4 35139.1 35603.9 36158.6 35963.6 35537.9 35068.1 35307 35641.7 35896.5 36054.3
          36230.6 36141 35961.5 35796.3 35891.5 36042.5 36152.6 36212.4 35932.8 35514.5 34430.9 32512.1
          30814.7 32479.9 34248.4 35183.3 35745.9 34978.1 32776.3 28005.7 22588.3 28289.3 32396.3 34330.7
          35494.9 34192.7 29880 16870.1 -226.962 18685.2 28306.1 32687.5 35436.7 34129.5 30344.8 22248.2
          16766.3 20549.3 22144 31109.9 35466.3 34138.4 29907.4 18497 25535.4 28757.3 30507.4 33440.3
          35691.2 34840.9 32472.2 27979 31172.5 33099.2 34201.6 35080.9 35939.4 35550.6 34623.7 33406.2
          34259.4 35049.1 35532.8 35815.9 36073.5 35901.6 35538.2 35171.5 35428.1 35749.6 35958.4 36064.3
          35743.5 35229.5 33959.4 31809 29785.1 31376 33563.3 34757.5 35494.7 34559.2 32059.3 27109.9
          21160.8 26972.5 31706.5 33905.1 35159.7 33564 28749.1 16340.2 -2728.61 16557.1 27968 32415.8
          35076.6 33321.9 27990.6 14364.2 5735.58 7855.04 24681.8 31531.3 35134.7 33346.9 27441.8 10957
          20654.6 25393.1 30670.9 33459.5 35428.3 34213 30340.3 19995.9 28480.1 31919.6 33937.7 34962.5
          35761.5 35222.6 33817.2 31553.8 33320.8 34593.3 35337.9 35694.6 35939 35709.6 35199.2 34622
          35053 35522.9 35817.6 35953.7 35531 34897.3 33402.4 31008.6 28360.5 29008.9 32292.4 34043.2
          35199.9 34023.8 31066.4 26041.6 19468.9 25141 30725.5 33275.3 34776.6 32732.2 26862 15456.5
          -4634.4 15227.4 27800 32124.1 34843.5 32973 27671 15924.8 -1123.35 16460.1 28107.5 32372.1
          35056.4 33412.8 28205.6 13794.9 19707.8 27083.9 31804.7 33902 35413.9 34461.6 31870.6 27228.9
          29705.4 32421.2 34228.7 35081.1 35719.2 35302.8 34320.2 33044.1 33767.8 34713.6 35363.4 35670.9
          35870.7 35691.4 35312.7 34925.5 35154.8 35512.4 35764.8 35882.7 35329.4 34549.9 32707.4 29871.5
          25909.7 21764.3 29642.7 32772.3 34901.4 33329.4 29183.6 23642.1 17007.9 20393.1 28409.3 31843.8
          34344.2 31199.3 19545 6711.12 -7837.55 9158.65 25717.8 30437.5 34703.3 32771 27484.3 18708.1
          4255.24 20301.3 29021.9 32218.6 35139.3 33990.3 31038 25988.2 24346.9 29107.6 32529.3 34056.6
          35497.9 34919.1 33553.6 31653 31747.2 33287.2 34545.3 35157.4 35725.8 35483.4 34956.8 34351.9
          34485.1 35003.4 35436.8 35651.9 35826.7 35723.7 35515.5 35311.6 35380.3 35576.8 35739.1 35819
          35275.2 34557.6 32830.7 29792.3 24707.6 17219.7 27424.4 31483.6 34926.6 33644.8 30452.9 25089.2
          16494.8 11743.6 24912.2 29599.9 34536.9 32431.3 26525.5 16209.7 -2964.22 11480.9 22589.1 25669.2
          34829.4 33377.2 29712.8 23587.2 17058.7 23473.4 28716.6 31064.8 35248.6 34474.5 32653.9 29961.6
          28490.3 30642.7 32761.1 33863.5 35547.9 35203.3 34440 33456.9 33188.5 33921.5 34695.5 35118.5
          35706.7 35575.1 35298.9 34985.5 34955.3 35200.9 35457.1 35597.6 35768.6 35716.4 35612.2 35506.9
          35512.1 35603.5 35694.4 35743.3 35232.5 34545 32832.5 29829.9 25733.4 22619.4 27701.1 31179.5
          34919.5 33668.6 30315.4 24292.6 15960 9270.59 21730.9 28731.6 34564.8 32432.8 25444 11685.8
          -4982.96 -1741.32 12219.8 25987.8 34841.6 33405.9 29305.5 20719.6 17944.8 21434.5 26739.8 30822.1
          35251.2 34574.3 32889.8 30198.9 29331.1 30676.9 32505.8 33766.3 35520.4 35259.6 34666.4 33865.8
          33622 34072.1 34670.2 35058.9 35646.1 35559.4 35373.9 35150.4 35093.8 35233 35412.2 35524.1
          35689.6 35659.4 35597.8 35530.3 35518.5 35565.6 35622.9 35657.6 35210.3 34595.3 33000.1 30030.9
          26254.2 24860.3 28194 31533.3 34961.1 33885.2 30855.2 24351.9 15025.6 11064.5 20057.2 29187.5
          34695.2 33000.7 27468.9 11735.5 -5476.6 8033.11 22284.4 29328.4 34892.8 33693.2 30270.2 22848.2
          17734.8 23761.3 29139.6 32096.9 35227.4 34649.7 33202.4 30820.1 29562.3 31229.5 33047.9 34118.4
          35456.2 35237.1 34732.6 34029.6 33731.7 34188.1 34754.4 35098.2 35562.4 35492.7 35341.3 35151.6
          35085.5 35208.2 35367.8 35465.4 35598.1 35575.4 35528.3 35473.9 35458.7 35495.4 35542.9 35571.8
          35179.3 34652.7 33280.6 30761.3 27879.4 28677.7 31104 32971.1 34979.6 34097.6 31648 26494.7
          18866.3 22597.1 28201.4 31849 34764.3 33454.7 29486.7 19334.4 -1605.84 14587.6 27220.1 31691.7
          34865.3 33822.9 31014.1 25602.4 20272.1 25945.5 30891.7 33169.1 35138.1 34588.2 33259.6 31220.2
          30081.6 31780.9 33535.9 34453.6 35353.2 35132.5 34638.1 33987.5 33753.4 34256.2 34822.1 35134.6
          35460.9 35388.5 35235 35053.3 35008.5 35149.2 35311.8 35403.4 35498.6 35474.7 35426.2 35373.5
          35364.9 35407.4 35456.1 35483.7 35094.7 34583.5 33241.6 30748.7 27928.9 30197.4 32570.6 33879.7
          34886.3 34006.3 31527.6 26048.2 16488.7 25376.8 30819.6 33205.2 34621.5 33235.9 29009.7 17952.6
          -3588.33 17653.3 29187 32818.8 34614.9 33257.5 29348.6 21162.8 18306.4 26447.8 31609.3 33687.6
          34916.6 34165.8 32301.4 29433.7 29242.9 31739.7 33690.8 34589.4 35192.8 34886.6 34202.2 33350.3
          33381.8 34131.5 34786.5 35107.6 35339 35237.7 35026.9 34798.8 34820.3 35031.7 35225.5 35323.2
          35391.7 35358 35291.7 35226.9 35236.2 35300 35359.6 35390.1 34983.5 34461.2 33124.4 30801.3
          28719.3 30946.1 33123 34216.6 34739.5 33789.9 31178.3 25883.6 19660.5 26974.6 31717 33684.6
          34376.2 32695 27479 13970.1 -3306.91 20273.9 30110.5 33245.4 34236.1 32118.5 24571.6 1352.41
          14813.4 26401.9 31827.5 33841.4 34634 33512.5 30404 24642.3 27722.2 31429.2 33649 34577.9
          35012.3 34575.2 33550.5 32202.8 32819.9 33916.2 34687 35032.1 35211.9 35071.5 34774.8 34458.5
          34588 34889.5 35121.7 35229.5 35283.4 35237.6 35147.6 35063.9 35096.8 35186 35258.3 35292.5
        </DataArray>
        <DataArray type="Float32" Name="saturation" NumberOfComponents="1" format="ascii">
          0.30155 0.301543 0.301526 0.301502 0.301486 0.3015 0.301523 0.301537 0.301548 0.301537 0.301512 0.301472
          0.301445 0.301468 0.301504 0.301527 0.301545 0.301532 0.301498 0.301444 0.301404 0.301434 0.301484 0.301515
          0.301546 0.301534 0.301505 0.301462 0.301432 0.30145 0.301489 0.301515 0.301548 0.30154 0.301521 0.301496
          0.301482 0.301492 0.301513 0.301528 0.301551 0.301546 0.301536 0.301525 0.30152 0.301526 0.301535 0.301542
          0.301553 0.30155 0.301546 0.301542 0.301541 0.301543 0.301547 0.30155 0.301553 0.301552 0.301551 0.301549
          0.301549 0.30155 0.301552 0.301553 0.301434 0.301414 0.301364 0.301288 0.301235 0.301282 0.301354 0.301397
          0.301427 0.301395 0.301315 0.301187 0.301089 0.301172 0.301293 0.301364 0.30142 0.301377 0.301266 0.301079
          0.300922 0.301047 0.301222 0.301323 0.301422 0.301383 0.30129 0.301146 0.301038 0.301101 0.301232 0.301321
          0.301428 0.3014 0.301338 0.301254 0.301211 0.301245 0.301314 0.301364 0.301435 0.301419 0.301386 0.301347
          0.301336 0.301355 0.301386 0.301408 0.301441 0.301434 0.301419 0.301404 0.301403 0.301413 0.301425 0.301433
          0.301444 0.301441 0.301434 0.301428 0.301429 0.301434 0.301439 0.301442 0.301302 0.30124 0.301088 0.300845
          0.300668 0.300829 0.301058 0.30119 0.301279 0.30118 0.300924 0.300487 0.300113 0.300443 0.300856 0.301084
          0.301256 0.301116 0.300742 0.300054 0.29935 0.299941 0.300592 0.300942 0.301259 0.301133 0.300823 0.300319
          0.299904 0.300132 0.300605 0.300919 0.301274 0.30118 0.300964 0.300666 0.300539 0.30066 0.300895 0.301067
          0.301298 0.301242 0.301122 0.300982 0.300965 0.301038 0.30114 0.301212 0.301319 0.301292 0.301238 0.301184
          0.30119 0.301226 0.301267 0.301293 0.30133 0.301317 0.301293 0.301272 0.301278 0.301296 0.301313 0.301323
          0.301138 0.300986 0.300601 0.299963 0.299453 0.29993 0.300531 0.300864 0.30108 0.300824 0.300139 0.298876
          0.297603 0.298776 0.299969 0.300582 0.301013 0.300633 0.299558 0.297311 0.294318 0.296985 0.299131 0.300165
          0.301014 0.300669 0.299787 0.298276 0.296883 0.297532 0.299028 0.300037 0.301046 0.300768 0.3001 0.299137
          0.298911 0.299286 0.299959 0.300474 0.301109 0.300937 0.300556 0.300099 0.300147 0.300392 0.30068 0.300887
          0.30117 0.301087 0.300917 0.300744 0.300794 0.300918 0.301033 0.301107 0.301202 0.301163 0.301088 0.301022
          0.30105 0.30111 0.301159 0.301188 0.30094 0.300644 0.29988 0.298568 0.297413 0.298526 0.299755 0.300412
          0.300818 0.300295 0.298844 0.295946 0.292473 0.295824 0.298527 0.299822 0.300665 0.299837 0.297329 0.291216
          0.280574 0.290591 0.296363 0.298841 0.30065 0.299876 0.297832 0.294107 0.290467 0.29143 0.295374 0.298309
          0.300693 0.300001 0.298199 0.295199 0.295603 0.296618 0.298101 0.299423 0.300831 0.300391 0.299345 0.297932
          0.29851 0.29924 0.299892 0.300381 0.300973 0.300764 0.300311 0.299817 0.300068 0.300421 0.300692 0.300861
          0.301051 0.300954 0.300762 0.300586 0.300687 0.300849 0.300967 0.301031 0.300731 0.300287 0.299156 0.297225
          0.295588 0.297193 0.298969 0.299938 0.300532 0.299723 0.297486 0.293015 0.288478 0.293268 0.297111 0.299053
          0.300266 0.298912 0.294714 0.284206 0.273816 0.28551 0.293283 0.297398 0.300205 0.298847 0.295146 0.28821
          0.284133 0.286898 0.288128 0.295868 0.300236 0.298856 0.294739 0.285373 0.290881 0.293688 0.295299 0.298148
          0.300474 0.29958 0.297186 0.292992 0.295928 0.297807 0.298921 0.299831 0.300738 0.300325 0.299355 0.298114
          0.29898 0.299797 0.300306 0.300607 0.300882 0.300698 0.300312 0.299926 0.300196 0.300536 0.300759 0.300872
          0.30053 0.299986 0.298673 0.296539 0.294626 0.296123 0.298272 0.299494 0.300266 0.299288 0.296782 0.292228
          0.287365 0.292109 0.29644 0.298618 0.299913 0.298273 0.293681 0.283834 0.272531 0.283985 0.292982 0.297131
          0.299826 0.298029 0.293002 0.282478 0.277097 0.278344 0.29017 0.296272 0.299887 0.298054 0.292518 0.280254
          0.286978 0.290762 0.295453 0.298167 0.300196 0.298932 0.295142 0.286481 0.293439 0.296647 0.298651 0.299707
          0.300549 0.299979 0.298529 0.296293 0.298028 0.299324 0.3001 0.300478 0.300738 0.300494 0.299955 0.299353
          0.299802 0.300296 0.300608 0.300754 0.300304 0.299639 0.29811 0.295772 0.293332 0.293916 0.29701 0.298759
          0.299955 0.298739 0.295827 0.291309 0.286087 0.290551 0.295504 0.297983 0.299514 0.297442 0.292013 0.283221
          0.271585 0.283064 0.292833 0.296845 0.299583 0.297681 0.292719 0.283544 0.27335 0.283917 0.293106 0.297088
          0.299805 0.298121 0.293193 0.282097 0.286265 0.292206 0.296535 0.298615 0.300181 0.299188 0.296599 0.292332
          0.294553 0.297136 0.298948 0.299831 0.300504 0.300063 0.299042 0.297752 0.298479 0.299448 0.300127 0.300452
          0.300665 0.300474 0.300074 0.299668 0.299908 0.300284 0.300552 0.300678 0.300092 0.299279 0.297418 0.294706
          0.291197 0.287832 0.294495 0.297482 0.299643 0.298037 0.294075 0.28932 0.284303 0.28678 0.293375 0.296573
          0.299067 0.295954 0.286144 0.277665 0.270055 0.279134 0.291035 0.295233 0.299437 0.297481 0.292555 0.285527
          0.276252 0.286711 0.293927 0.296938 0.299892 0.298705 0.2958 0.291264 0.289894 0.294005 0.297242 0.298772
          0.300269 0.299662 0.298262 0.296389 0.29648 0.297995 0.299274 0.299911 0.300511 0.300254 0.299701 0.299075
          0.299212 0.29975 0.300205 0.300432 0.300618 0.300508 0.300288 0.300073 0.300145 0.300353 0.300525 0.30061
          0.300034 0.299287 0.29754 0.294633 0.290191 0.284453 0.292503 0.296226 0.29967 0.298354 0.295248 0.290508
          0.283942 0.280755 0.29036 0.294456 0.299265 0.297146 0.291723 0.283743 0.272412 0.280587 0.288478 0.290994
          0.299568 0.298085 0.29456 0.289276 0.284339 0.289184 0.293651 0.295826 0.300007 0.299201 0.297365 0.29479
          0.293448 0.295426 0.297471 0.298576 0.300322 0.299959 0.299165 0.298165 0.297896 0.298635 0.299429 0.29987
          0.30049 0.300351 0.300059 0.299731 0.2997 0.299956 0.300226 0.300375 0.300556 0.300501 0.30039 0.300279
          0.300284 0.300381 0.300477 0.300529 0.29999 0.299274 0.297541 0.294668 0.291048 0.288502 0.292746 0.295935
          0.299662 0.298378 0.295119 0.289849 0.283569 0.279203 0.287806 0.293665 0.299294 0.297147 0.290804 0.280718
          0.271414 0.273032 0.281062 0.291263 0.299581 0.298114 0.294186 0.287028 0.284972 0.287576 0.291907 0.295595
          0.300009 0.299304 0.297598 0.29501 0.294209 0.295458 0.297219 0.298477 0.300293 0.300018 0.299399 0.298578
          0.298331 0.298788 0.299403 0.299808 0.300426 0.300334 0.300138 0.299904 0.299844 0.29999 0.300179 0.300297
          0.300472 0.30044 0.300375 0.300303 0.300291 0.300341 0.300402 0.300438 0.299966 0.299326 0.297708 0.294854
          0.29149 0.290317 0.293183 0.296273 0.299706 0.298598 0.295627 0.289898 0.282926 0.280322 0.286527 0.294078
          0.299429 0.297709 0.292542 0.28075 0.271175 0.278451 0.288238 0.294207 0.299634 0.298403 0.295077 0.288684
          0.284821 0.289417 0.294034 0.296819 0.299984 0.299382 0.29791 0.295593 0.294421 0.295982 0.297756 0.298836
          0.300225 0.299994 0.299468 0.298745 0.298442 0.298907 0.299491 0.299849 0.300337 0.300264 0.300104 0.299905
          0.299835 0.299964 0.300132 0.300235 0.300375 0.300351 0.300301 0.300244 0.300228 0.300267 0.300317 0.300347
          0.299934 0.299385 0.297988 0.295538 0.292903 0.293616 0.295863 0.297679 0.299725 0.298814 0.296384 0.291696
          0.285643 0.288485 0.293189 0.296578 0.299501 0.298163 0.294352 0.285988 0.273101 0.282629 0.292324 0.296426
          0.299606 0.298535 0.295777 0.290938 0.286689 0.291228 0.295661 0.297876 0.299891 0.299318 0.297967 0.295974
          0.294901 0.296512 0.298244 0.299179 0.300117 0.299885 0.29937 0.298702 0.298464 0.298977 0.299561 0.299887
          0.30023 0.300154 0.299992 0.299802 0.299755 0.299902 0.300073 0.300169 0.30027 0.300245 0.300194 0.300138
          0.300129 0.300174 0.300225 0.300254 0.299845 0.299314 0.297949 0.295526 0.292947 0.295009 0.297283 0.298592
          0.299628 0.298721 0.296268 0.291315 0.283938 0.290748 0.295593 0.297913 0.299353 0.297943 0.293916 0.284978
          0.272101 0.284763 0.294078 0.297528 0.299346 0.297965 0.294225 0.287367 0.285234 0.291656 0.296347 0.298398
          0.299659 0.298884 0.297018 0.294303 0.294129 0.296472 0.298401 0.29932 0.299948 0.299628 0.298921 0.298058
          0.298089 0.298849 0.299524 0.299859 0.300102 0.299995 0.299774 0.299537 0.299559 0.299779 0.299982 0.300085
          0.300157 0.300122 0.300052 0.299984 0.299993 0.300061 0.300123 0.300155 0.299729 0.299187 0.297832 0.295576
          0.293654 0.295713 0.29783 0.298936 0.299475 0.298501 0.295934 0.291175 0.28623 0.292111 0.29645 0.298395
          0.2991 0.297405 0.292551 0.282214 0.272241 0.28669 0.294928 0.297953 0.298956 0.29684 0.290079 0.274654
          0.282782 0.291617 0.296557 0.298553 0.299366 0.298221 0.295202 0.290137 0.292765 0.296174 0.298359 0.299308
          0.299759 0.299305 0.298259 0.296922 0.297529 0.298629 0.299421 0.29978 0.299968 0.299821 0.299512 0.299185
          0.299318 0.299631 0.299873 0.299986 0.300043 0.299995 0.299901 0.299813 0.299847 0.299941 0.300017 0.300053
        </DataArray>
        <DataArray type="Float32" Name="process rank" NumberOfComponents="1" format="ascii">
          0 0 0 0 0 0 0 0 0 0 0 0
          0 0 0 0 0 0 0 0 0 0 0 0
          0 0 0 0 0 0 0 0 0 0 0 0
          0 0 0 0 0 0 0 0 0 0 0 0
          0 0 0 0 0 0 0 0 0 0 0 0
          0 0 0 0 0 0 0 0 0 0 0 0
          0 0 0 0 0 0 0 0 0 0 0 0
          0 0 0 0 0 0 0 0 0 0 0 0
          0 0 0 0 0 0 0 0 0 0 0 0
          0 0 0 0 0 0 0 0 0 0 0 0
          0 0 0 0 0 0 0 0 0 0 0 0
          0 0 0 0 0 0 0 0 0 0 0 0
          0 0 0 0 0 0 0 0 0 0 0 0
          0 0 0 0 0 0 0 0 0 0 0 0
          0 0 0 0 0 0 0 0 0 0 0 0
          0 0 0 0 0 0 0 0 0 0 0 0
          0 0 0 0 0 0 0 0 0 0 0 0
          0 0 0 0 0 0 0 0 0 0 0 0
          0 0 0 0 0 0 0 0 0 0 0 0
          0 0 0 0 0 0 0 0 0 0 0 0
          0 0 0 0 0 0 0 0 0 0 0 0
          0 0 0 0 0 0 0 0 0 0 0 0
          0 0 0 0 0 0 0 0 0 0 0 0
          0 0 0 0 0 0 0 0 0 0 0 0
          0 0 0 0 0 0 0 0 0 0 0 0
          0 0 0 0 0 0 0 0 0 0 0 0
          0 0 0 0 0 0 0 0 0 0 0 0
          0 0 0 0 0 0 0 0 0 0 0 0
          0 0 0 0 0 0 0 0 0 0 0 0
          0 0 0 0 0 0 0 0 0 0 0 0
          0 0 0 0 0 0 0 0 0 0 0 0
          0 0 0 0 0 0 0 0 0 0 0 0
          0 0 0 0 0 0 0 0 0 0 0 0
          0 0 0 0 0 0 0 0 0 0 0 0
          0 0 0 0 0 0 0 0 0 0 0 0
          0 0 0 0 0 0 0 0 0 0 0 0
          0 0 0 0 0 0 0 0 0 0 0 0
          0 0 0 0 0 0 0 0 0 0 0 0
          0 0 0 0 0 0 0 0 0 0 0 0
          0 0 0 0 0 0 0 0 0 0 0 0
          0 0 0 0 0 0 0 0 0 0 0 0
          0 0 0 0 0 0 0 0 0 0 0 0
          0 0 0 0 0 0 0 0 0 0 0 0
          0 0 0 0 0 0 0 0 0 0 0 0
          0 0 0 0 0 0 0 0 0 0 0 0
          0 0 0 0 0 0 0 0 0 0 0 0
          0 0 0 0 0 0 0 0 0 0 0 0
          0 0 0 0 0 0 0 0 0 0 0 0
          0 0 0 0 0 0 0 0 0 0 0 0
          0 0 0 0 0 0 0 0 0 0 0 0
          0 0 0 0 0 0 0 0 0 0 0 0
          0 0 0 0 0 0 0 0 0 0 0 0
          0 0 0 0 0 0 0 0 0 0 0 0
          0 0 0 0 0 0 0 0 0 0 0 0
          0 0 0 0 0 0 0 0 0 0 0 0
          0 0 0 0 0 0 0 0 0 0 0 0
          0 0 0 0 0 0 0 0 0 0 0 0
          0 0 0 0 0 0 0 0 0 0 0 0
          0 0 0 0 0 0 0 0 0 0 0 0
          0 0 0 0 0 0 0 0 0 0 0 0
          0 0 0 0 0 0 0 0 0 0 0 0
          0 0 0 0 0 0 0 0 0 0 0 0
          0 0 0 0 0 0 0 0 0 0 0 0
          0 0 0 0 0 0 0 0 0 0 0 0
          0 0 0 0 0 0 0 0 0 0 0 0
          0 0 0 0 0 0 0 0 0 0 0 0
          0 0 0 0 0 0 0 0 0 0 0 0
          0 0 0 0 0 0 0 0 0 0 0 0
          0 0 0 0 0 0 0 0 0 0 0 0
          0 0 0 0 0 0 0 0 0 0 0 0
          0 0 0 0 0 0 0 0 0 0 0 0
          0 0 0 0 0 0 0 0 0 0 0 0
          0 0 0 0 0 0 0 0 0 0 0 0
          0 0 0 0 0 0 0 0 0 0 0 0
          0 0 0 0 0 0 0 0 0 0 0 0
          0 0 0 0 0 0 0 0 0 0 0 0
          0 0 0 0 0 0 0 0 0 0 0 0
          0 0 0 0 0 0 0 0 0 0 0 0
          0 0 0 0 0 0 0 0 0 0 0 0
          0 0 0 0 0 0 0 0 0 0 0 0
        </DataArray>
      </CellData>
      <Points>
        <DataArray type="Float32" Name="Coordinates" NumberOfComponents="3" format="ascii">
          -0.04 -0.04 -0.15 -0.03 -0.04 -0.15 -0.04 -0.03 -0.15 -0.03 -0.03 -0.15
          -0.04 -0.04 -0.14 -0.03 -0.04 -0.14 -0.04 -0.03 -0.14 -0.03 -0.03 -0.14
          -0.02 -0.04 -0.15 -0.02 -0.03 -0.15 -0.02 -0.04 -0.14 -0.02 -0.03 -0.14
          -0.01 -0.04 -0.15 -0.01 -0.03 -0.15 -0.01 -0.04 -0.14 -0.01 -0.03 -0.14
          0 -0.04 -0.15 0 -0.03 -0.15 0 -0.04 -0.14 0 -0.03 -0.14
          0.01 -0.04 -0.15 0.01 -0.03 -0.15 0.01 -0.04 -0.14 0.01 -0.03 -0.14
          0.02 -0.04 -0.15 0.02 -0.03 -0.15 0.02 -0.04 -0.14 0.02 -0.03 -0.14
          0.03 -0.04 -0.15 0.03 -0.03 -0.15 0.03 -0.04 -0.14 0.03 -0.03 -0.14
          0.04 -0.04 -0.15 0.04 -0.03 -0.15 0.04 -0.04 -0.14 0.04 -0.03 -0.14
          -0.04 -0.02 -0.15 -0.03 -0.02 -0.15 -0.04 -0.02 -0.14 -0.03 -0.02 -0.14
          -0.02 -0.02 -0.15 -0.02 -0.02 -0.14 -0.01 -0.02 -0.15 -0.01 -0.02 -0.14
          0 -0.02 -0.15 0 -0.02 -0.14 0.01 -0.02 -0.15 0.01 -0.02 -0.14
          0.02 -0.02 -0.15 0.02 -0.02 -0.14 0.03 -0.02 -0.15 0.03 -0.02 -0.14
          0.04 -0.02 -0.15 0.04 -0.02 -0.14 -0.04 -0.01 -0.15 -0.03 -0.01 -0.15
          -0.04 -0.01 -0.14 -0.03 -0.01 -0.14 -0.02 -0.01 -0.15 -0.02 -0.01 -0.14
          -0.01 -0.01 -0.15 -0.01 -0.01 -0.14 0 -0.01 -0.15 0 -0.01 -0.14
          0.01 -0.01 -0.15 0.01 -0.01 -0.14 0.02 -0.01 -0.15 0.02 -0.01 -0.14
          0.03 -0.01 -0.15 0.03 -0.01 -0.14 0.04 -0.01 -0.15 0.04 -0.01 -0.14
          -0.04 0 -0.15 -0.03 0 -0.15 -0.04 0 -0.14 -0.03 0 -0.14
          -0.02 0 -0.15 -0.02 0 -0.14 -0.01 0 -0.15 -0.01 0 -0.14
          0 0 -0.15 0 0 -0.14 0.01 0 -0.15 0.01 0 -0.14
          0.02 0 -0.15 0.02 0 -0.14 0.03 0 -0.15 0.03 0 -0.14
          0.04 0 -0.15 0.04 0 -0.14 -0.04 0.01 -0.15 -0.03 0.01 -0.15
          -0.04 0.01 -0.14 -0.03 0.01 -0.14 -0.02 0.01 -0.15 -0.02 0.01 -0.14
          -0.01 0.01 -0.15 -0.01 0.01 -0.14 0 0.01 -0.15 0 0.01 -0.14
          0.01 0.01 -0.15 0.01 0.01 -0.14 0.02 0.01 -0.15 0.02 0.01 -0.14
          0.03 0.01 -0.15 0.03 0.01 -0.14 0.04 0.01 -0.15 0.04 0.01 -0.14
          -0.04 0.02 -0.15 -0.03 0.02 -0.15 -0.04 0.02 -0.14 -0.03 0.02 -0.14
          -0.02 0.02 -0.15 -0.02 0.02 -0.14 -0.01 0.02 -0.15 -0.01 0.02 -0.14
          0 0.02 -0.15 0 0.02 -0.14 0.01 0.02 -0.15 0.01 0.02 -0.14
          0.02 0.02 -0.15 0.02 0.02 -0.14 0.03 0.02 -0.15 0.03 0.02 -0.14
          0.04 0.02 -0.15 0.04 0.02 -0.14 -0.04 0.03 -0.15 -0.03 0.03 -0.15
          -0.04 0.03 -0.14 -0.03 0.03 -0.14 -0.02 0.03 -0.15 -0.02 0.03 -0.14
          -0.01 0.03 -0.15 -0.01 0.03 -0.14 0 0.03 -0.15 0 0.03 -0.14
          0.01 0.03 -0.15 0.01 0.03 -0.14 0.02 0.03 -0.15 0.02 0.03 -0.14
          0.03 0.03 -0.15 0.03 0.03 -0.14 0.04 0.03 -0.15 0.04 0.03 -0.14
          -0.04 0.04 -0.15 -0.03 0.04 -0.15 -0.04 0.04 -0.14 -0.03 0.04 -0.14
          -0.02 0.04 -0.15 -0.02 0.04 -0.14 -0.01 0.04 -0.15 -0.01 0.04 -0.14
          0 0.04 -0.15 0 0.04 -0.14 0.01 0.04 -0.15 0.01 0.04 -0.14
          0.02 0.04 -0.15 0.02 0.04 -0.14 0.03 0.04 -0.15 0.03 0.04 -0.14
          0.04 0.04 -0.15 0.04 0.04 -0.14 -0.04 -0.04 -0.13 -0.03 -0.04 -0.13
          -0.04 -0.03 -0.13 -0.03 -0.03 -0.13 -0.02 -0.04 -0.13 -0.02 -0.03 -0.13
          -0.01 -0.04 -0.13 -0.01 -0.03 -0.13 0 -0.04 -0.13 0 -0.03 -0.13
          0.01 -0.04 -0.13 0.01 -0.03 -0.13 0.02 -0.04 -0.13 0.02 -0.03 -0.13
          0.03 -0.04 -0.13 0.03 -0.03 -0.13 0.04 -0.04 -0.13 0.04 -0.03 -0.13
          -0.04 -0.02 -0.13 -0.03 -0.02 -0.13 -0.02 -0.02 -0.13 -0.01 -0.02 -0.13
          0 -0.02 -0.13 0.01 -0.02 -0.13 0.02 -0.02 -0.13 0.03 -0.02 -0.13
          0.04 -0.02 -0.13 -0.04 -0.01 -0.13 -0.03 -0.01 -0.13 -0.02 -0.01 -0.13
          -0.01 -0.01 -0.13 0 -0.01 -0.13 0.01 -0.01 -0.13 0.02 -0.01 -0.13
          0.03 -0.01 -0.13 0.04 -0.01 -0.13 -0.04 0 -0.13 -0.03 0 -0.13
          -0.02 0 -0.13 -0.01 0 -0.13 0 0 -0.13 0.01 0 -0.13
          0.02 0 -0.13 0.03 0 -0.13 0.04 0 -0.13 -0.04 0.01 -0.13
          -0.03 0.01 -0.13 -0.02 0.01 -0.13 -0.01 0.01 -0.13 0 0.01 -0.13
          0.01 0.01 -0.13 0.02 0.01 -0.13 0.03 0.01 -0.13 0.04 0.01 -0.13
          -0.04 0.02 -0.13 -0.03 0.02 -0.13 -0.02 0.02 -0.13 -0.01 0.02 -0.13
          0 0.02 -0.13 0.01 0.02 -0.13 0.02 0.02 -0.13 0.03 0.02 -0.13
          0.04 0.02 -0.13 -0.04 0.03 -0.13 -0.03 0.03 -0.13 -0.02 0.03 -0.13
          -0.01 0.03 -0.13 0 0.03 -0.13 0.01 0.03 -0.13 0.02 0.03 -0.13
          0.03 0.03 -0.13 0.04 0.03 -0.13 -0.04 0.04 -0.13 -0.03 0.04 -0.13
          -0.02 0.04 -0.13 -0.01 0.04 -0.13 0 0.04 -0.13 0.01 0.04 -0.13
          0.02 0.04 -0.13 0.03 0.04 -0.13 0.04 0.04 -0.13 -0.04 -0.04 -0.12
          -0.03 -0.04 -0.12 -0.04 -0.03 -0.12 -0.03 -0.03 -0.12 -0.02 -0.04 -0.12
          -0.02 -0.03 -0.12 -0.01 -0.04 -0.12 -0.01 -0.03 -0.12 0 -0.04 -0.12
          0 -0.03 -0.12 0.01 -0.04 -0.12 0.01 -0.03 -0.12 0.02 -0.04 -0.12
          0.02 -0.03 -0.12 0.03 -0.04 -0.12 0.03 -0.03 -0.12 0.04 -0.04 -0.12
          0.04 -0.03 -0.12 -0.04 -0.02 -0.12 -0.03 -0.02 -0.12 -0.02 -0.02 -0.12
          -0.01 -0.02 -0.12 0 -0.02 -0.12 0.01 -0.02 -0.12 0.02 -0.02 -0.12
          0.03 -0.02 -0.12 0.04 -0.02 -0.12 -0.04 -0.01 -0.12 -0.03 -0.01 -0.12
          -0.02 -0.01 -0.12 -0.01 -0.01 -0.12 0 -0.01 -0.12 0.01 -0.01 -0.12
          0.02 -0.01 -0.12 0.03 -0.01 -0.12 0.04 -0.01 -0.12 -0.04 0 -0.12
          -0.03 0 -0.12 -0.02 0 -0.12 -0.01 0 -0.12 0 0 -0.12
          0.01 0 -0.12 0.02 0 -0.12 0.03 0 -0.12 0.04 0 -0.12
          -0.04 0.01 -0.12 -0.03 0.01 -0.12 -0.02 0.01 -0.12 -0.01 0.01 -0.12
          0 0.01 -0.12 0.01 0.01 -0.12 0.02 0.01 -0.12 0.03 0.01 -0.12
          0.04 0.01 -0.12 -0.04 0.02 -0.12 -0.03 0.02 -0.12 -0.02 0.02 -0.12
          -0.01 0.02 -0.12 0 0.02 -0.12 0.01 0.02 -0.12 0.02 0.02 -0.12
          0.03 0.02 -0.12 0.04 0.02 -0.12 -0.04 0.03 -0.12 -0.03 0.03 -0.12
          -0.02 0.03 -0.12 -0.01 0.03 -0.12 0 0.03 -0.12 0.01 0.03 -0.12
          0.02 0.03 -0.12 0.03 0.03 -0.12 0.04 0.03 -0.12 -0.04 0.04 -0.12
          -0.03 0.04 -0.12 -0.02 0.04 -0.12 -0.01 0.04 -0.12 0 0.04 -0.12
          0.01 0.04 -0.12 0.02 0.04 -0.12 0.03 0.04 -0.12 0.04 0.04 -0.12
          -0.04 -0.04 -0.11 -0.03 -0.04 -0.11 -0.04 -0.03 -0.11 -0.03 -0.03 -0.11
          -0.02 -0.04 -0.11 -0.02 -0.03 -0.11 -0.01 -0.04 -0.11 -0.01 -0.03 -0.11
          0 -0.04 -0.11 0 -0.03 -0.11 0.01 -0.04 -0.11 0.01 -0.03 -0.11
          0.02 -0.04 -0.11 0.02 -0.03 -0.11 0.03 -0.04 -0.11 0.03 -0.03 -0.11
          0.04 -0.04 -0.11 0.04 -0.03 -0.11 -0.04 -0.02 -0.11 -0.03 -0.02 -0.11
          -0.02 -0.02 -0.11 -0.01 -0.02 -0.11 0 -0.02 -0.11 0.01 -0.02 -0.11
          0.02 -0.02 -0.11 0.03 -0.02 -0.11 0.04 -0.02 -0.11 -0.04 -0.01 -0.11
          -0.03 -0.01 -0.11 -0.02 -0.01 -0.11 -0.01 -0.01 -0.11 0 -0.01 -0.11
          0.01 -0.01 -0.11 0.02 -0.01 -0.11 0.03 -0.01 -0.11 0.04 -0.01 -0.11
          -0.04 0 -0.11 -0.03 0 -0.11 -0.02 0 -0.11 -0.01 0 -0.11
          0 0 -0.11 0.01 0 -0.11 0.02 0 -0.11 0.03 0 -0.11
          0.04 0 -0.11 -0.04 0.01 -0.11 -0.03 0.01 -0.11 -0.02 0.01 -0.11
          -0.01 0.01 -0.11 0 0.01 -0.11 0.01 0.01 -0.11 0.02 0.01 -0.11
          0.03 0.01 -0.11 0.04 0.01 -0.11 -0.04 0.02 -0.11 -0.03 0.02 -0.11
          -0.02 0.02 -0.11 -0.01 0.02 -0.11 0 0.02 -0.11 0.01 0.02 -0.11
          0.02 0.02 -0.11 0.03 0.02 -0.11 0.04 0.02 -0.11 -0.04 0.03 -0.11
          -0.03 0.03 -0.11 -0.02 0.03 -0.11 -0.01 0.03 -0.11 0 0.03 -0.11
          0.01 0.03 -0.11 0.02 0.03 -0.11 0.03 0.03 -0.11 0.04 0.03 -0.11
          -0.04 0.04 -0.11 -0.03 0.04 -0.11 -0.02 0.04 -0.11 -0.01 0.04 -0.11
          0 0.04 -0.11 0.01 0.04 -0.11 0.02 0.04 -0.11 0.03 0.04 -0.11
          0.04 0.04 -0.11 -0.04 -0.04 -0.1 -0.03 -0.04 -0.1 -0.04 -0.03 -0.1
          -0.03 -0.03 -0.1 -0.02 -0.04 -0.1 -0.02 -0.03 -0.1 -0.01 -0.04 -0.1
          -0.01 -0.03 -0.1 0 -0.04 -0.1 0 -0.03 -0.1 0.01 -0.04 -0.1
          0.01 -0.03 -0.1 0.02 -0.04 -0.1 0.02 -0.03 -0.1 0.03 -0.04 -0.1
          0.03 -0.03 -0.1 0.04 -0.04 -0.1 0.04 -0.03 -0.1 -0.04 -0.02 -0.1
          -0.03 -0.02 -0.1 -0.02 -0.02 -0.1 -0.01 -0.02 -0.1 0 -0.02 -0.1
          0.01 -0.02 -0.1 0.02 -0.02 -0.1 0.03 -0.02 -0.1 0.04 -0.02 -0.1
          -0.04 -0.01 -0.1 -0.03 -0.01 -0.1 -0.02 -0.01 -0.1 -0.01 -0.01 -0.1
          0 -0.01 -0.1 0.01 -0.01 -0.1 0.02 -0.01 -0.1 0.03 -0.01 -0.1
          0.04 -0.01 -0.1 -0.04 0 -0.1 -0.03 0 -0.1 -0.02 0 -0.1
          -0.01 0 -0.1 0 0 -0.1 0.01 0 -0.1 0.02 0 -0.1
          0.03 0 -0.1 0.04 0 -0.1 -0.04 0.01 -0.1 -0.03 0.01 -0.1
          -0.02 0.01 -0.1 -0.01 0.01 -0.1 0 0.01 -0.1 0.01 0.01 -0.1
          0.02 0.01 -0.1 0.03 0.01 -0.1 0.04 0.01 -0.1 -0.04 0.02 -0.1
          -0.03 0.02 -0.1 -0.02 0.02 -0.1 -0.01 0.02 -0.1 0 0.02 -0.1
          0.01 0.02 -0.1 0.02 0.02 -0.1 0.03 0.02 -0.1 0.04 0.02 -0.1
          -0.04 0.03 -0.1 -0.03 0.03 -0.1 -0.02 0.03 -0.1 -0.01 0.03 -0.1
          0 0.03 -0.1 0.01 0.03 -0.1 0.02 0.03 -0.1 0.03 0.03 -0.1
          0.04 0.03 -0.1 -0.04 0.04 -0.1 -0.03 0.04 -0.1 -0.02 0.04 -0.1