<?xml version="1.0"?>
<VTKFile type="UnstructuredGrid" version="0.1" byte_order="LittleEndian">
  <UnstructuredGrid>
    <Piece NumberOfCells="960" NumberOfPoints="1296">
      <CellData Scalars="p (Pa)">
        <DataArray type="Float32" Name="p (Pa)" NumberOfComponents="1" format="ascii">
          35999.4 35866.4 35642.9 35411.9 35276.4 35295.3 35403.6 35493.6 35982.1 35841.3 35602.2 35350.2
          35200 35227.5 35352.1 35452.9 35974.7 35829.4 35580.3 35313.5 35151.2 35186.4 35323.9 35433.2
          36007.7 35873 35644.8 35405.8 35264.5 35289.2 35409.1 35507.5 36085.8 35974.4 35789.7 35604.1
          35501.8 35520.3 35610 35685.1 36189 36105.2 35969.7 35839.6 35773.7 35789.9 35853 35905.3
          36284.3 36223.6 36127.9 36040 35999.3 36014 36059 36095.3 36340.8 36293 36219 36153.1
          36124.8 36138.7 36174.6 36202.9 35645.5 35445.6 35101.7 34732.6 34512.9 34571.1 34770.8 34926.6
          35612 35393.9 35010.1 34581 34312.2 34405.6 34656.2 34842.4 35589.4 35356.8 34939.2 34452.5
          34125.2 34260.1 34562.7 34779.1 35628.6 35412.1 35031.8 34609.3 34347.1 34425.7 34678.4 34873.2
          35736.6 35558.5 35255.8 34942.5 34777 34830.8 35005.8 35146 35884.1 35752.3 35536.1 35327.7
          35232.9 35275.4 35390.9 35482.7 36021.9 35928.8 35781.2 35647.3 35593.6 35627.9 35705.9 35766.4
          36104 36032.3 35921.3 35824.7 35789.5 35818.8 35878.8 35924.3 35031 34685.2 34068.8 33367
          32927.3 33111 33547.9 33863.6 34958.1 34563.9 33831.5 32927.7 32285.6 32634.6 33253.5 33665.6
          34895.5 34454.4 33600.8 32447.7 31462.2 32087.2 32942.9 33472.6 34943.7 34531.6 33765.7 32828.2
          32175.1 32437.4 33109 33592.2 35112.6 34773.8 34172.1 33513.9 33198.6 33364.7 33778.5 34097.8
          35355.3 35109.1 34693.7 34285.7 34140.1 34263.9 34514.8 34706.6 35585.4 35417.4 35147.3 34904.3
          34832 34921.8 35080.8 35198.5 35723 35597.8 35403.2 35237.9 35193.7 35263.9 35380.6 35465.2
          34168.5 33583 32494.2 31155.3 30229.4 30749.1 31675.7 32292.6 34022 33318.6 31917.3 29933.7
          28168.9 29438.7 30967.6 31862 33877.8 33041.4 31242.1 28195.6 24230.1 27452.5 30036.7 31354.8
          33930.3 33145.3 31571.9 29369.4 27516.9 28253.8 30160 31442.9 34189.4 33534.1 32281.9 30758.6
          30242.3 30714.8 31688.5 32432 34587.9 34120.8 33289 32424.5 32277.1 32620.2 33154.9 33552.3
          34972.7 34667.4 34161.2 33699.7 33637 33860.6 34177 34401.4 35202.9 34984.8 34641.1 34353
          34313.2 34471.5 34692.2 34845 33122.5 32213 30449.8 28096.4 26245.4 27488.6 29227.7 30302.3
          32864.2 31710.2 29228.9 25099 20166.5 24354.5 27759.4 29495.7 32584.5 31109.3 27481.9 19054.3
          -912.677 17560 25302.8 28364.7 32626.5 31225.5 28143 23045.3 17809.6 18683.8 24452.5 28138.8
          32993 31768.6 29106.5 24973.6 25084.7 26341.2 28406.2 30109.4 33614 32759.4 31080.1 29038
          29366 30275.6 31313.9 32084.5 34223.6 33696.5 32769.2 31865.7 31961.5 32478.8 33057.9 33451.5
          34586.8 34230.5 33652 33160.7 33175.1 33498.2 33880.5 34133.3 32023.7 30772.2 28294.4 24851.4
          22080.3 23996.1 26567.7 28134.4 31639 29991.9 26298.6 19654.3 12344.8 19092.2 24297.4 26952.3
          31196.8 28958.8 22916.4 5844.42 -16985.2 7613.65 19606.7 25043.8 31213.9 29001.7 23656.8 13376.5
          6245.11 10656.8 11752.4 23774.4 31689.7 29594.5 23957.2 8598.88 17584.9 21381.4 23795.7 27521.4
          32581.6 31152 27852.4 22038.5 25342.5 27621 29303.3 30613.4 33465.1 32643.3 31058.4 29235.5
          29947.7 31011.1 31942.6 32545.7 33984.7 33464 32578.6 31782.6 31950.5 32520.6 33102.7 33469.2
          31017.4 29483.4 26474.5 22347.4 18863.2 20739 23981.7 25987.2 30534.6 28516.7 24132.5 16773.1
          8396.03 15420.3 21627.9 24777 29985.5 27228.9 20242.9 3773.53 -21269.5 2988.86 17325.6 23066.6
          30035 27152.7 19710.6 1830.19 -9164.51 -8328.85 14202.9 22858.8 30682.1 27948 20177.7 -1800.55
          10668 16254.9 22915.2 26513.9 31816.3 29903.3 24746.9 10652.2 21411.3 25499 28265.4 29808.6
          32926.3 31881.2 29682.3 26541.7 28309.7 29951.6 31235.2 31971.7 33566.9 32934.8 31816 30723.6
          31070.2 31844.5 32580.6 33022.4 30186 28389.6 24880 20114.9 15580.4 16247.7 20904.9 23637.6
          29621.5 27216.1 22066.8 14201.3 4718.56 11545.6 18917.2 22594.1 29023.2 25659 17181.9 1699.95
          -23588.6 -276.893 15744.5 21493.9 29347.7 26253.3 18676 3258.83 -19222.3 2958.02 17501.2 22956.9
          30306.2 27670.4 20564.6 824.163 8798.97 17657.3 23607.7 26463 31635.9 29966.9 26202.6 20045.3
          22449 25703.5 28260.8 29641.6 32803.9 31871.2 30092.2 28073.8 28613.8 29906.8 31100.1 31794.6
          33459 32873.9 31880.5 30976.3 31090.2 31739.5 32431.9 32857.7 29629.3 27590 23519.3 17953.5
          11512.2 5347.05 16423.3 20853.2 28999.7 26088.6 19371.1 10535.8 688.32 4515 14998.7 19779.2
          28349.5 23647.1 6824.06 -10889.1 -27677.5 -9405.11 12461.1 18735.8 29142.2 25996.1 18410 6519.56
          -13298.4 7310.24 18145.1 22376.8 30458.4 28376 23859.8 16892.6 14222.6 19856.3 24282.9 26493.1
          31858.5 30604 28170.9 25204.8 24833.4 26736.8 28647.1 29742.5 32974.4 32252.8 30986.6 29715.2
          29605 30389 31298.1 31862.6 33581.3 33109 32337 31651.3 31576.9 32002.2 32544.8 32897.9
          29497.7 27480.4 23441.9 17488.1 9385.07 -1885.79 12761.7 18430.1 29001.5 26380.2 20741.5 12081.9
          -382.148 -7959.89 10020.7 16383.5 28636.2 25171.1 16530.2 2124.5 -22908.6 -5490.41 8461.51 12063.1
          29468.4 26885.5 21232 12524.5 3660.32 11200.2 17807.3 21003.4 30836.9 29196.1 25956.4 21727.6
          19307.4 21801.6 24709.8 26412.1 32196.6 31233 29488.4 27549.6 26794.2 27744.2 29060.5 29906.8
          33229.5 32671.4 31729.1 30805.4 30513.4 30939.5 31586.3 32024.4 33778.6 33406 32806.4 32264.5
          32108 32357.4 32753.3 33029.2 29587.2 27610.3 23598.5 17697.6 10801.1 6192.03 13117.4 17975.5
          29165.4 26588.7 20755.4 11334.3 -731.574 -10681.8 6132.31 15392.6 28896.5 25386.3 15008 -4271.93
          -24804.1 -21979.4 -5497 13376.6 29770.8 27252.1 21095.2 8685.96 5248.95 9242.51 15882.7 21124.9
          31148 29664.3 26643.3 22413.1 20746.8 22297.6 24832.6 26661.9 32462.2 31636.3 30140.6 28446.8
          27729.6 28327.4 29395.9 30162 33431.2 32965.3 32181.7 31399 31079.5 31345.1 31851.7 32220.4
          33937.5 33629.1 33132.6 32671.4 32493.1 32649.7 32955.1 33180.2 29796.7 27940.2 24154.1 18466
          12134.4 9847.03 14549.1 19222.6 29456.7 27118.7 21803.1 12067.1 -1153.6 -7804.63 3938.89 16733.3
          29299.2 26365.9 18353.5 -3058.96 -23254.3 -8477.23 9374.91 18186.3 30081.8 27869.5 22667.7 12493.1
          5715.11 12733.1 19377.3 23170 31361 30022.3 27337.5 23612.6 21527.1 23444 25936 27529.9
          32606.1 31859.1 30514.5 28991.9 28256.2 28861 29874.3 30575 33527.7 33110.1 32409.5 31707.3
          31400 31639.4 32102.3 32438.3 34008.3 33734.6 33294.3 32882.5 32713.4 32845.9 33117.1 33318.9
          29986.5 28272.8 24835.9 19855.1 14879.3 15542.3 19180.6 22064.5 29688 27598.9 23025.8 15121.7
          4403.42 8608.72 16010.8 21007.3 29556.5 27075.2 20992.9 7504.09 -20018.3 -50.964 16066.3 21782.2
          30198.9 28177.3 23727.4 16334.5 9225.21 15821.8 21997.1 25053.2 31382.3 30093.5 27581.3 24333.7
          22479.5 24494.2 26955.6 28407.3 32592.6 31861.6 30563 29150.8 28548.9 29253.1 30293.2 30972.9
          33504.3 33098.1 32422.4 31765.4 31519.8 31806.6 32286 32619.7 33981.8 33719.1 33299.6 32917.3
          32781.1 32936.1 33214.4 33415.2 30044.5 28389.6 25083 20315 15675.8 18331.6 21936.4 24186.3
          29712.4 27659.8 23136.6 15007.6 1732.27 12929.9 20113.2 23574.7 29481.3 26937.6 20619.9 6193
          -21333.3 4618.69 19092.2 23872.8 29966.7 27629.9 22039.1 11521.4 7337.74 16911.2 23367.4 26243.1
          31155.9 29671.2 26634.2 22550.4 21800.5 24788 27519.9 28985 32423.9 31610.6 30137 28554.9
          28294.9 29330.6 30511.4 31224.1 33381.4 32947.5 32223.9 31544.8 31410.4 31816 32359.3 32714.5
          33880.8 33609.4 33178.8 32802.2 32714.3 32922.4 33233.5 33447.3 29992.3 28349.3 25104.7 20634.4
          17043 19778.7 23197.2 25216.3 29602.6 27495.6 22879.1 15087.5 6495.65 15368.5 21728.1 24721.4
          29231.4 26382.2 19004.5 1753.95 -20835.4 8362.12 20604.8 24840.6 29547.9 26405.7 16689.9 -14250.3
          3612.84 17175.3 23942.6 26774.3 30828.5 28965.4 24625.7 17234.9 20283.8 24637.2 27695.7 29216.7
          32205.9 31258.9 29443 27349.8 27757.7 29203.8 30540.1 31296.1 33229 32752.8 31943.4 31185.4
          31191.7 31723.4 32331.3 32709.7 33756.3 33470.1 33015.3 32627.9 32584.4 32842.4 33184.7 33411.7
        </DataArray>
        <DataArray type="Float32" Name="saturation" NumberOfComponents="1" format="ascii">
          0.300802 0.30066 0.300423 0.300178 0.300036 0.300056 0.30017 0.300265 0.300784 0.300634 0.30038 0.300113
          0.299955 0.299984 0.300115 0.300222 0.300776 0.300621 0.300356 0.300075 0.299904 0.299941 0.300086 0.300201
          0.300811 0.300667 0.300425 0.300172 0.300023 0.300049 0.300175 0.300279 0.300895 0.300776 0.300579 0.300382
          0.300273 0.300293 0.300388 0.300467 0.301006 0.300916 0.300771 0.300632 0.300562 0.300579 0.300646 0.300702
          0.301108 0.301043 0.30094 0.300846 0.300802 0.300818 0.300866 0.300905 0.301169 0.301118 0.301038 0.300967
          0.300937 0.300952 0.30099 0.301021 0.300425 0.300214 0.299852 0.299468 0.299241 0.299301 0.299508 0.29967
          0.30039 0.300159 0.299757 0.299311 0.299034 0.29913 0.299389 0.299582 0.300366 0.30012 0.299683 0.299178
          0.298842 0.298981 0.299292 0.299516 0.300408 0.300179 0.299779 0.29934 0.29907 0.299151 0.299412 0.299614
          0.300522 0.300333 0.300014 0.299686 0.299514 0.29957 0.299752 0.299899 0.300679 0.300539 0.30031 0.30009
          0.29999 0.300035 0.300156 0.300253 0.300827 0.300727 0.30057 0.300427 0.30037 0.300407 0.30049 0.300554
          0.300915 0.300838 0.300719 0.300616 0.300578 0.30061 0.300674 0.300722 0.299779 0.299419 0.298785 0.298075
          0.297636 0.297818 0.298257 0.298576 0.299702 0.299293 0.298543 0.297636 0.297003 0.297346 0.297961 0.298375
          0.299637 0.29918 0.29831 0.297162 0.296205 0.296809 0.297651 0.298181 0.299687 0.29926 0.298477 0.297537
          0.296895 0.297152 0.297816 0.298301 0.299864 0.299511 0.29889 0.298222 0.297906 0.298072 0.29849 0.298814
          0.300119 0.29986 0.299428 0.299007 0.298858 0.298984 0.299243 0.299441 0.300362 0.300184 0.2999 0.299646
          0.299571 0.299665 0.299831 0.299954 0.300508 0.300375 0.300169 0.299995 0.299949 0.300023 0.300145 0.300235
          0.298887 0.298292 0.297208 0.295912 0.295039 0.295526 0.296411 0.29701 0.298737 0.298026 0.296644 0.294764
          0.29316 0.294308 0.295733 0.296591 0.29859 0.297749 0.295994 0.293184 0.289798 0.292527 0.294859 0.296102
          0.298644 0.297853 0.296311 0.294244 0.292584 0.293236 0.294974 0.296187 0.298908 0.298243 0.296999 0.295535
          0.295051 0.295494 0.296423 0.297146 0.299318 0.298838 0.297996 0.297139 0.296995 0.297332 0.297862 0.298261
          0.299718 0.2994 0.298879 0.29841 0.298346 0.298573 0.298896 0.299126 0.299959 0.29973 0.299373 0.299076
          0.299035 0.299198 0.299426 0.299585 0.29783 0.296932 0.295245 0.293096 0.291483 0.292559 0.294115 0.295107
          0.297573 0.296444 0.294116 0.290516 0.286609 0.2899 0.292797 0.29436 0.297296 0.295868 0.292553 0.285781
          0.273459 0.284696 0.290686 0.293335 0.297338 0.295979 0.293137 0.288841 0.284875 0.285509 0.289981 0.293134
          0.297701 0.2965 0.294004 0.290411 0.290504 0.291565 0.293372 0.294927 0.298323 0.297469 0.29584 0.293942
          0.294241 0.295082 0.296063 0.296807 0.298943 0.298407 0.297479 0.296594 0.296687 0.297192 0.297765 0.29816
          0.299317 0.29895 0.298362 0.297868 0.297882 0.298206 0.298593 0.298851 0.296748 0.295548 0.293272 0.29031
          0.288078 0.289607 0.291759 0.29313 0.296375 0.294818 0.291528 0.286225 0.281143 0.285809 0.289853 0.292091
          0.295951 0.29387 0.288738 0.27716 0.266058 0.2782 0.28619 0.29047 0.295968 0.293909 0.289332 0.281819
          0.277393 0.280065 0.280761 0.289427 0.296424 0.294451 0.289576 0.278793 0.284714 0.287535 0.289444 0.292588
          0.297294 0.295909 0.29288 0.288045 0.290719 0.292675 0.294184 0.295398 0.298173 0.297354 0.295819 0.294122
          0.294777 0.295775 0.296669 0.297258 0.298699 0.298172 0.297291 0.296514 0.296677 0.297234 0.29781 0.298177
          0.295781 0.294349 0.291679 0.288288 0.28564 0.287042 0.289596 0.291263 0.295324 0.293472 0.289718 0.284137
          0.27867 0.283196 0.287726 0.290248 0.294812 0.292332 0.286667 0.275982 0.264353 0.275546 0.284529 0.288858
          0.294858 0.292265 0.286267 0.274912 0.269442 0.269826 0.28237 0.288692 0.295463 0.292964 0.286617 0.273002
          0.280072 0.283774 0.288737 0.291713 0.296546 0.294736 0.290223 0.280062 0.287558 0.290851 0.293247 0.294648
          0.297635 0.296609 0.294531 0.291737 0.293286 0.29478 0.295988 0.296697 0.298276 0.297643 0.296546 0.295502
          0.295831 0.296574 0.297293 0.29773 0.294998 0.293358 0.290334 0.28657 0.283306 0.283769 0.287169 0.289316
          0.294475 0.292321 0.288067 0.282369 0.276514 0.280629 0.28568 0.288482 0.293929 0.290985 0.284427 0.274842
          0.26347 0.27379 0.28342 0.287622 0.294224 0.29149 0.285503 0.275695 0.265155 0.275529 0.284654 0.28877
          0.29511 0.292719 0.28691 0.274372 0.278914 0.284766 0.289292 0.291669 0.296372 0.294795 0.291446 0.286518
          0.288368 0.291023 0.293242 0.294494 0.297513 0.2966 0.294911 0.293076 0.293559 0.294739 0.295859 0.296525
          0.298167 0.297583 0.296609 0.295741 0.29585 0.296472 0.297146 0.297567 0.294483 0.292648 0.289221 0.284979
          0.280607 0.276873 0.283892 0.28713 0.293907 0.291349 0.286015 0.279989 0.274299 0.276399 0.282908 0.286319
          0.293322 0.289324 0.277732 0.268663 0.261975 0.269332 0.281219 0.285547 0.294037 0.291271 0.285309 0.277553
          0.267607 0.278019 0.285117 0.288311 0.295253 0.293345 0.289496 0.284222 0.282383 0.286376 0.289842 0.291695
          0.296587 0.29539 0.293162 0.290604 0.290295 0.291905 0.293589 0.294587 0.297682 0.296971 0.295751 0.294562
          0.29446 0.295188 0.296048 0.296591 0.29829 0.297816 0.297053 0.296387 0.296315 0.296727 0.297257 0.297606
          0.294362 0.292552 0.289159 0.284645 0.279273 0.272958 0.281415 0.285324 0.293909 0.291598 0.287044 0.280973
          0.273735 0.269998 0.279667 0.283864 0.293579 0.290576 0.283967 0.275072 0.263726 0.271168 0.278709 0.280961
          0.294335 0.292033 0.28742 0.28126 0.275918 0.280408 0.284873 0.287244 0.295609 0.294086 0.291237 0.287803
          0.285968 0.287861 0.290193 0.291625 0.296916 0.295986 0.294353 0.292613 0.291954 0.292784 0.293963 0.294739
          0.297937 0.297382 0.296462 0.29558 0.295304 0.295707 0.296324 0.296748 0.29849 0.298114 0.297516 0.296982
          0.29683 0.297073 0.297463 0.297737 0.294444 0.292666 0.289285 0.284795 0.280156 0.277362 0.281648 0.284995
          0.294058 0.291777 0.287055 0.280494 0.273553 0.268756 0.277327 0.283177 0.293814 0.290756 0.282914 0.271762
          0.263017 0.26408 0.271165 0.281819 0.294613 0.292352 0.287315 0.278846 0.276817 0.279186 0.283515 0.287338
          0.295905 0.294515 0.291824 0.288339 0.287049 0.288248 0.290294 0.29184 0.297176 0.296373 0.294956 0.293409
          0.292771 0.293302 0.294268 0.294976 0.298139 0.297673 0.296901 0.296145 0.29584 0.296093 0.296581 0.296939
          0.298651 0.298338 0.29784 0.297382 0.297207 0.297361 0.297663 0.297887 0.294637 0.292957 0.289736 0.28535
          0.281007 0.279559 0.282603 0.285905 0.294324 0.292236 0.287862 0.280964 0.273334 0.27007 0.276074 0.284109
          0.29418 0.291586 0.285268 0.272365 0.263595 0.269758 0.279267 0.285147 0.294901 0.292895 0.28854 0.28124
          0.277085 0.281396 0.286019 0.28894 0.296108 0.294846 0.292427 0.289296 0.287648 0.28916 0.29122 0.292595
          0.297318 0.296588 0.295306 0.2939 0.293238 0.293782 0.294709 0.295362 0.298236 0.297818 0.297124 0.296441
          0.296146 0.296376 0.296824 0.297153 0.298723 0.298445 0.298002 0.297591 0.297424 0.297555 0.297824 0.298026
          0.294813 0.293253 0.290297 0.286375 0.282827 0.28328 0.285874 0.288066 0.294537 0.292656 0.288825 0.282992
          0.276336 0.278799 0.283604 0.287247 0.294416 0.292198 0.287236 0.278135 0.264841 0.273909 0.283643 0.287845
          0.29501 0.293168 0.289389 0.28383 0.279175 0.283473 0.288013 0.290478 0.296129 0.294912 0.29264 0.289883
          0.288392 0.290015 0.292094 0.293373 0.297305 0.29659 0.295351 0.294045 0.2935 0.294138 0.295098 0.295738
          0.298213 0.297806 0.297137 0.296497 0.296261 0.296537 0.297003 0.297331 0.298696 0.29843 0.298007 0.297626
          0.297491 0.297644 0.297922 0.298123 0.294867 0.293358 0.290502 0.286721 0.283372 0.285252 0.287966 0.289762
          0.294559 0.29271 0.288914 0.282914 0.274859 0.281525 0.286569 0.289266 0.294347 0.292078 0.286952 0.277362
          0.264328 0.276458 0.285809 0.289507 0.294794 0.292683 0.288046 0.280613 0.278036 0.284235 0.289099 0.291481
          0.295912 0.294521 0.291816 0.288448 0.28786 0.290257 0.292587 0.293894 0.297139 0.296348 0.294953 0.293506
          0.293273 0.294209 0.295303 0.295977 0.298089 0.297656 0.296943 0.296285 0.296155 0.296546 0.297075 0.297425
          0.298593 0.298319 0.297886 0.297512 0.297425 0.297631 0.297941 0.298155 0.294818 0.293322 0.290521 0.286963
          0.284328 0.286318 0.288962 0.290614 0.294458 0.292565 0.288708 0.282968 0.277539 0.283161 0.287803 0.290202
          0.294118 0.2916 0.285744 0.274871 0.264521 0.278649 0.28694 0.290301 0.294408 0.29162 0.284079 0.267199
          0.275892 0.284422 0.289564 0.291937 0.295601 0.293876 0.290123 0.284464 0.286697 0.290133 0.292741 0.294105
          0.296925 0.296011 0.294312 0.292437 0.292796 0.294093 0.29533 0.296046 0.297936 0.297463 0.29667 0.29594
          0.295946 0.296457 0.297048 0.29742 0.298467 0.298178 0.297723 0.297339 0.297296 0.297551 0.297892 0.298119
        </DataArray>
        <DataArray type="Float32" Name="process rank" NumberOfComponents="1" format="ascii">
          0 0 0 0 0 0 0 0 0 0 0 0
          0 0 0 0 0 0 0 0 0 0 0 0
          0 0 0 0 0 0 0 0 0 0 0 0
          0 0 0 0 0 0 0 0 0 0 0 0
          0 0 0 0 0 0 0 0 0 0 0 0
          0 0 0 0 0 0 0 0 0 0 0 0
          0 0 0 0 0 0 0 0 0 0 0 0
          0 0 0 0 0 0 0 0 0 0 0 0
          0 0 0 0 0 0 0 0 0 0 0 0
          0 0 0 0 0 0 0 0 0 0 0 0
          0 0 0 0 0 0 0 0 0 0 0 0
          0 0 0 0 0 0 0 0 0 0 0 0
          0 0 0 0 0 0 0 0 0 0 0 0
          0 0 0 0 0 0 0 0 0 0 0 0
          0 0 0 0 0 0 0 0 0 0 0 0
          0 0 0 0 0 0 0 0 0 0 0 0
          0 0 0 0 0 0 0 0 0 0 0 0
          0 0 0 0 0 0 0 0 0 0 0 0
          0 0 0 0 0 0 0 0 0 0 0 0
          0 0 0 0 0 0 0 0 0 0 0 0
          0 0 0 0 0 0 0 0 0 0 0 0
          0 0 0 0 0 0 0 0 0 0 0 0
          0 0 0 0 0 0 0 0 0 0 0 0
          0 0 0 0 0 0 0 0 0 0 0 0
          0 0 0 0 0 0 0 0 0 0 0 0
          0 0 0 0 0 0 0 0 0 0 0 0
          0 0 0 0 0 0 0 0 0 0 0 0
          0 0 0 0 0 0 0 0 0 0 0 0
          0 0 0 0 0 0 0 0 0 0 0 0
          0 0 0 0 0 0 0 0 0 0 0 0
          0 0 0 0 0 0 0 0 0 0 0 0
          0 0 0 0 0 0 0 0 0 0 0 0
          0 0 0 0 0 0 0 0 0 0 0 0
          0 0 0 0 0 0 0 0 0 0 0 0
          0 0 0 0 0 0 0 0 0 0 0 0
          0 0 0 0 0 0 0 0 0 0 0 0
          0 0 0 0 0 0 0 0 0 0 0 0
          0 0 0 0 0 0 0 0 0 0 0 0
          0 0 0 0 0 0 0 0 0 0 0 0
          0 0 0 0 0 0 0 0 0 0 0 0
          0 0 0 0 0 0 0 0 0 0 0 0
          0 0 0 0 0 0 0 0 0 0 0 0
          0 0 0 0 0 0 0 0 0 0 0 0
          0 0 0 0 0 0 0 0 0 0 0 0
          0 0 0 0 0 0 0 0 0 0 0 0
          0 0 0 0 0 0 0 0 0 0 0 0
          0 0 0 0 0 0 0 0 0 0 0 0
          0 0 0 0 0 0 0 0 0 0 0 0
          0 0 0 0 0 0 0 0 0 0 0 0
          0 0 0 0 0 0 0 0 0 0 0 0
          0 0 0 0 0 0 0 0 0 0 0 0
          0 0 0 0 0 0 0 0 0 0 0 0
          0 0 0 0 0 0 0 0 0 0 0 0
          0 0 0 0 0 0 0 0 0 0 0 0
          0 0 0 0 0 0 0 0 0 0 0 0
          0 0 0 0 0 0 0 0 0 0 0 0
          0 0 0 0 0 0 0 0 0 0 0 0
          0 0 0 0 0 0 0 0 0 0 0 0
          0 0 0 0 0 0 0 0 0 0 0 0
          0 0 0 0 0 0 0 0 0 0 0 0
          0 0 0 0 0 0 0 0 0 0 0 0
          0 0 0 0 0 0 0 0 0 0 0 0
          0 0 0 0 0 0 0 0 0 0 0 0
          0 0 0 0 0 0 0 0 0 0 0 0
          0 0 0 0 0 0 0 0 0 0 0 0
          0 0 0 0 0 0 0 0 0 0 0 0
          0 0 0 0 0 0 0 0 0 0 0 0
          0 0 0 0 0 0 0 0 0 0 0 0
          0 0 0 0 0 0 0 0 0 0 0 0
          0 0 0 0 0 0 0 0 0 0 0 0
          0 0 0 0 0 0 0 0 0 0 0 0
          0 0 0 0 0 0 0 0 0 0 0 0
          0 0 0 0 0 0 0 0 0 0 0 0
          0 0 0 0 0 0 0 0 0 0 0 0
          0 0 0 0 0 0 0 0 0 0 0 0
          0 0 0 0 0 0 0 0 0 0 0 0
          0 0 0 0 0 0 0 0 0 0 0 0
          0 0 0 0 0 0 0 0 0 0 0 0
          0 0 0 0 0 0 0 0 0 0 0 0
          0 0 0 0 0 0 0 0 0 0 0 0
        </DataArray>
      </CellData>
      <Points>
        <DataArray type="Float32" Name="Coordinates" NumberOfComponents="3" format="ascii">
          -0.04 -0.04 -0.15 -0.03 -0.04 -0.15 -0.04 -0.03 -0.15 -0.03 -0.03 -0.15
          -0.04 -0.04 -0.14 -0.03 -0.04 -0.14 -0.04 -0.03 -0.14 -0.03 -0.03 -0.14
          -0.02 -0.04 -0.15 -0.02 -0.03 -0.15 -0.02 -0.04 -0.14 -0.02 -0.03 -0.14
          -0.01 -0.04 -0.15 -0.01 -0.03 -0.15 -0.01 -0.04 -0.14 -0.01 -0.03 -0.14
          0 -0.04 -0.15 0 -0.03 -0.15 0 -0.04 -0.14 0 -0.03 -0.14
          0.01 -0.04 -0.15 0.01 -0.03 -0.15 0.01 -0.04 -0.14 0.01 -0.03 -0.14
          0.02 -0.04 -0.15 0.02 -0.03 -0.15 0.02 -0.04 -0.14 0.02 -0.03 -0.14
          0.03 -0.04 -0.15 0.03 -0.03 -0.15 0.03 -0.04 -0.14 0.03 -0.03 -0.14
          0.04 -0.04 -0.15 0.04 -0.03 -0.15 0.04 -0.04 -0.14 0.04 -0.03 -0.14
          -0.04 -0.02 -0.15 -0.03 -0.02 -0.15 -0.04 -0.02 -0.14 -0.03 -0.02 -0.14
          -0.02 -0.02 -0.15 -0.02 -0.02 -0.14 -0.01 -0.02 -0.15 -0.01 -0.02 -0.14
          0 -0.02 -0.15 0 -0.02 -0.14 0.01 -0.02 -0.15 0.01 -0.02 -0.14
          0.02 -0.02 -0.15 0.02 -0.02 -0.14 0.03 -0.02 -0.15 0.03 -0.02 -0.14
          0.04 -0.02 -0.15 0.04 -0.02 -0.14 -0.04 -0.01 -0.15 -0.03 -0.01 -0.15
          -0.04 -0.01 -0.14 -0.03 -0.01 -0.14 -0.02 -0.01 -0.15 -0.02 -0.01 -0.14
          -0.01 -0.01 -0.15 -0.01 -0.01 -0.14 0 -0.01 -0.15 0 -0.01 -0.14
          0.01 -0.01 -0.15 0.01 -0.01 -0.14 0.02 -0.01 -0.15 0.02 -0.01 -0.14
          0.03 -0.01 -0.15 0.03 -0.01 -0.14 0.04 -0.01 -0.15 0.04 -0.01 -0.14
          -0.04 0 -0.15 -0.03 0 -0.15 -0.04 0 -0.14 -0.03 0 -0.14
          -0.02 0 -0.15 -0.02 0 -0.14 -0.01 0 -0.15 -0.01 0 -0.14
          0 0 -0.15 0 0 -0.14 0.01 0 -0.15 0.01 0 -0.14
          0.02 0 -0.15 0.02 0 -0.14 0.03 0 -0.15 0.03 0 -0.14
          0.04 0 -0.15 0.04 0 -0.14 -0.04 0.01 -0.15 -0.03 0.01 -0.15
          -0.04 0.01 -0.14 -0.03 0.01 -0.14 -0.02 0.01 -0.15 -0.02 0.01 -0.14
          -0.01 0.01 -0.15 -0.01 0.01 -0.14 0 0.01 -0.15 0 0.01 -0.14
          0.01 0.01 -0.15 0.01 0.01 -0.14 0.02 0.01 -0.15 0.02 0.01 -0.14
          0.03 0.01 -0.15 0.03 0.01 -0.14 0.04 0.01 -0.15 0.04 0.01 -0.14
          -0.04 0.02 -0.15 -0.03 0.02 -0.15 -0.04 0.02 -0.14 -0.03 0.02 -0.14
          -0.02 0.02 -0.15 -0.02 0.02 -0.14 -0.01 0.02 -0.15 -0.01 0.02 -0.14
          0 0.02 -0.15 0 0.02 -0.14 0.01 0.02 -0.15 0.01 0.02 -0.14
          0.02 0.02 -0.15 0.02 0.02 -0.14 0.03 0.02 -0.15 0.03 0.02 -0.14
          0.04 0.02 -0.15 0.04 0.02 -0.14 -0.04 0.03 -0.15 -0.03 0.03 -0.15
          -0.04 0.03 -0.14 -0.03 0.03 -0.14 -0.02 0.03 -0.15 -0.02 0.03 -0.14
          -0.01 0.03 -0.15 -0.01 0.03 -0.14 0 0.03 -0.15 0 0.03 -0.14
          0.01 0.03 -0.15 0.01 0.03 -0.14 0.02 0.03 -0.15 0.02 0.03 -0.14
          0.03 0.03 -0.15 0.03 0.03 -0.14 0.04 0.03 -0.15 0.04 0.03 -0.14
          -0.04 0.04 -0.15 -0.03 0.04 -0.15 -0.04 0.04 -0.14 -0.03 0.04 -0.14
          -0.02 0.04 -0.15 -0.02 0.04 -0.14 -0.01 0.04 -0.15 -0.01 0.04 -0.14
          0 0.04 -0.15 0 0.04 -0.14 0.01 0.04 -0.15 0.01 0.04 -0.14
          0.02 0.04 -0.15 0.02 0.04 -0.14 0.03 0.04 -0.15 0.03 0.04 -0.14
          0.04 0.04 -0.15 0.04 0.04 -0.14 -0.04 -0.04 -0.13 -0.03 -0.04 -0.13
          -0.04 -0.03 -0.13 -0.03 -0.03 -0.13 -0.02 -0.04 -0.13 -0.02 -0.03 -0.13
          -0.01 -0.04 -0.13 -0.01 -0.03 -0.13 0 -0.04 -0.13 0 -0.03 -0.13
          0.01 -0.04 -0.13 0.01 -0.03 -0.13 0.02 -0.04 -0.13 0.02 -0.03 -0.13
          0.03 -0.04 -0.13 0.03 -0.03 -0.13 0.04 -0.04 -0.13 0.04 -0.03 -0.13
          -0.04 -0.02 -0.13 -0.03 -0.02 -0.13 -0.02 -0.02 -0.13 -0.01 -0.02 -0.13
          0 -0.02 -0.13 0.01 -0.02 -0.13 0.02 -0.02 -0.13 0.03 -0.02 -0.13
          0.04 -0.02 -0.13 -0.04 -0.01 -0.13 -0.03 -0.01 -0.13 -0.02 -0.01 -0.13
          -0.01 -0.01 -0.13 0 -0.01 -0.13 0.01 -0.01 -0.13 0.02 -0.01 -0.13
          0.03 -0.01 -0.13 0.04 -0.01 -0.13 -0.04 0 -0.13 -0.03 0 -0.13
          -0.02 0 -0.13 -0.01 0 -0.13 0 0 -0.13 0.01 0 -0.13
          0.02 0 -0.13 0.03 0 -0.13 0.04 0 -0.13 -0.04 0.01 -0.13
          -0.03 0.01 -0.13 -0.02 0.01 -0.13 -0.01 0.01 -0.13 0 0.01 -0.13
          0.01 0.01 -0.13 0.02 0.01 -0.13 0.03 0.01 -0.13 0.04 0.01 -0.13
          -0.04 0.02 -0.13 -0.03 0.02 -0.13 -0.02 0.02 -0.13 -0.01 0.02 -0.13
          0 0.02 -0.13 0.01 0.02 -0.13 0.02 0.02 -0.13 0.03 0.02 -0.13
          0.04 0.02 -0.13 -0.04 0.03 -0.13 -0.03 0.03 -0.13 -0.02 0.03 -0.13
          -0.01 0.03 -0.13 0 0.03 -0.13 0.01 0.03 -0.13 0.02 0.03 -0.13
          0.03 0.03 -0.13 0.04 0.03 -0.13 -0.04 0.04 -0.13 -0.03 0.04 -0.13
          -0.02 0.04 -0.13 -0.01 0.04 -0.13 0 0.04 -0.13 0.01 0.04 -0.13
          0.02 0.04 -0.13 0.03 0.04 -0.13 0.04 0.04 -0.13 -0.04 -0.04 -0.12
          -0.03 -0.04 -0.12 -0.04 -0.03 -0.12 -0.03 -0.03 -0.12 -0.02 -0.04 -0.12
          -0.02 -0.03 -0.12 -0.01 -0.04 -0.12 -0.01 -0.03 -0.12 0 -0.04 -0.12
          0 -0.03 -0.12 0.01 -0.04 -0.12 0.01 -0.03 -0.12 0.02 -0.04 -0.12
          0.02 -0.03 -0.12 0.03 -0.04 -0.12 0.03 -0.03 -0.12 0.04 -0.04 -0.12
          0.04 -0.03 -0.12 -0.04 -0.02 -0.12 -0.03 -0.02 -0.12 -0.02 -0.02 -0.12
          -0.01 -0.02 -0.12 0 -0.02 -0.12 0.01 -0.02 -0.12 0.02 -0.02 -0.12
          0.03 -0.02 -0.12 0.04 -0.02 -0.12 -0.04 -0.01 -0.12 -0.03 -0.01 -0.12
          -0.02 -0.01 -0.12 -0.01 -0.01 -0.12 0 -0.01 -0.12 0.01 -0.01 -0.12
          0.02 -0.01 -0.12 0.03 -0.01 -0.12 0.04 -0.01 -0.12 -0.04 0 -0.12
          -0.03 0 -0.12 -0.02 0 -0.12 -0.01 0 -0.12 0 0 -0.12
          0.01 0 -0.12 0.02 0 -0.12 0.03 0 -0.12 0.04 0 -0.12
          -0.04 0.01 -0.12 -0.03 0.01 -0.12 -0.02 0.01 -0.12 -0.01 0.01 -0.12
          0 0.01 -0.12 0.01 0.01 -0.12 0.02 0.01 -0.12 0.03 0.01 -0.12
          0.04 0.01 -0.12 -0.04 0.02 -0.12 -0.03 0.02 -0.12 -0.02 0.02 -0.12
          -0.01 0.02 -0.12 0 0.02 -0.12 0.01 0.02 -0.12 0.02 0.02 -0.12
          0.03 0.02 -0.12 0.04 0.02 -0.12 -0.04 0.03 -0.12 -0.03 0.03 -0.12
          -0.02 0.03 -0.12 -0.01 0.03 -0.12 0 0.03 -0.12 0.01 0.03 -0.12
          0.02 0.03 -0.12 0.03 0.03 -0.12 0.04 0.03 -0.12 -0.04 0.04 -0.12
          -0.03 0.04 -0.12 -0.02 0.04 -0.12 -0.01 0.04 -0.12 0 0.04 -0.12
          0.01 0.04 -0.12 0.02 0.04 -0.12 0.03 0.04 -0.12 0.04 0.04 -0.12
          -0.04 -0.04 -0.11 -0.03 -0.04 -0.11 -0.04 -0.03 -0.11 -0.03 -0.03 -0.11
          -0.02 -0.04 -0.11 -0.02 -0.03 -0.11 -0.01 -0.04 -0.11 -0.01 -0.03 -0.11
          0 -0.04 -0.11 0 -0.03 -0.11 0.01 -0.04 -0.11 0.01 -0.03 -0.11
          0.02 -0.04 -0.11 0.02 -0.03 -0.11 0.03 -0.04 -0.11 0.03 -0.03 -0.11
          0.04 -0.04 -0.11 0.04 -0.03 -0.11 -0.04 -0.02 -0.11 -0.03 -0.02 -0.11
          -0.02 -0.02 -0.11 -0.01 -0.02 -0.11 0 -0.02 -0.11 0.01 -0.02 -0.11
          0.02 -0.02 -0.11 0.03 -0.02 -0.11 0.04 -0.02 -0.11 -0.04 -0.01 -0.11
          -0.03 -0.01 -0.11 -0.02 -0.01 -0.11 -0.01 -0.01 -0.11 0 -0.01 -0.11
          0.01 -0.01 -0.11 0.02 -0.01 -0.11 0.03 -0.01 -0.11 0.04 -0.01 -0.11
          -0.04 0 -0.11 -0.03 0 -0.11 -0.02 0 -0.11 -0.01 0 -0.11
          0 0 -0.11 0.01 0 -0.11 0.02 0 -0.11 0.03 0 -0.11
          0.04 0 -0.11 -0.04 0.01 -0.11 -0.03 0.01 -0.11 -0.02 0.01 -0.11
          -0.01 0.01 -0.11 0 0.01 -0.11 0.01 0.01 -0.11 0.02 0.01 -0.11
          0.03 0.01 -0.11 0.04 0.01 -0.11 -0.04 0.02 -0.11 -0.03 0.02 -0.11
          -0.02 0.02 -0.11 -0.01 0.02 -0.11 0 0.02 -0.11 0.01 0.02 -0.11
          0.02 0.02 -0.11 0.03 0.02 -0.11 0.04 0.02 -0.11 -0.04 0.03 -0.11
          -0.03 0.03 -0.11 -0.02 0.03 -0.11 -0.01 0.03 -0.11 0 0.03 -0.11
          0.01 0.03 -0.11 0.02 0.03 -0.11 0.03 0.03 -0.11 0.04 0.03 -0.11
          -0.04 0.04 -0.11 -0.03 0.04 -0.11 -0.02 0.04 -0.11 -0.01 0.04 -0.11
          0 0.04 -0.11 0.01 0.04 -0.11 0.02 0.04 -0.11 0.03 0.04 -0.11
          0.04 0.04 -0.11 -0.04 -0.04 -0.1 -0.03 -0.04 -0.1 -0.04 -0.03 -0.1
          -0.03 -0.03 -0.1 -0.02 -0.04 -0.1 -0.02 -0.03 -0.1 -0.01 -0.04 -0.1
          -0.01 -0.03 -0.1 0 -0.04 -0.1 0 -0.03 -0.1 0.01 -0.04 -0.1
          0.01 -0.03 -0.1 0.02 -0.04 -0.1 0.02 -0.03 -0.1 0.03 -0.04 -0.1
          0.03 -0.03 -0.1 0.04 -0.04 -0.1 0.04 -0.03 -0.1 -0.04 -0.02 -0.1
          -0.03 -0.02 -0.1 -0.02 -0.02 -0.1 -0.01 -0.02 -0.1 0 -0.02 -0.1
          0.01 -0.02 -0.1 0.02 -0.02 -0.1 0.03 -0.02 -0.1 0.04 -0.02 -0.1
          -0.04 -0.01 -0.1 -0.03 -0.01 -0.1 -0.02 -0.01 -0.1 -0.01 -0.01 -0.1
          0 -0.01 -0.1 0.01 -0.01 -0.1 0.02 -0.01 -0.1 0.03 -0.01 -0.1
          0.04 -0.01 -0.1 -0.04 0 -0.1 -0.03 0 -0.1 -0.02 0 -0.1
          -0.01 0 -0.1 0 0 -0.1 0.01 0 -0.1 0.02 0 -0.1
          0.03 0 -0.1 0.04 0 -0.1 -0.04 0.01 -0.1 -0.03 0.01 -0.1
          -0.02 0.01 -0.1 -0.01 0.01 -0.1 0 0.01 -0.1 0.01 0.01 -0.1
          0.02 0.01 -0.1 0.03 0.01 -0.1 0.04 0.01 -0.1 -0.04 0.02 -0.1
          -0.03 0.02 -0.1 -0.02 0.02 -0.1 -0.01 0.02 -0.1 0 0.02 -0.1
          0.01 0.02 -0.1 0.02 0.02 -0.1 0.03 0.02 -0.1 0.04 0.02 -0.1
          -0.04 0.03 -0.1 -0.03 0.03 -0.1 -0.02 0.03 -0.1 -0.01 0.03 -0.1
          0 0.03 -0.1 0.01 0.03 -0.1 0.02 0.03 -0.1 0.03 0.03 -0.1
          0.04 0.03 -0.1 -0.04 0.04 -0.1 -0.03 0.04 -0.1 -0.02 0.04 -0.1