<?xml version="1.0"?>
<VTKFile type="UnstructuredGrid" version="0.1" byte_order="LittleEndian">
  <UnstructuredGrid>
    <Piece NumberOfCells="960" NumberOfPoints="1296">
      <CellData Scalars="p (Pa)">
        <DataArray type="Float32" Name="p (Pa)" NumberOfComponents="1" format="ascii">
          21864.4 20987.8 19438.1 17616.7 16134.4 15551.9 15750 16079.9 21835.9 20904.6 19236.5 17233.8
          15579.2 14994.2 15339.2 15783.1 21945.7 20974.7 19212.7 17045 15201.6 14583.5 15102 15679.8
          22370.4 21460 19828.5 17861.8 16193 15472.8 15899.5 16437.5 23094.4 22313 20944.3 19365.3
          18110.8 17548.8 17765.5 18119.1 23956.2 23326.2 22249.7 21064 20182.1 19797.4 19886.7 20085.5
          24721.5 24219.6 23380.5 22488.2 21847.8 21574.5 21605.5 21716 25171.3 24741.8 24032.9 23293.2
          22768.4 22545.1 22554 22626.7 20018.3 18852.1 16748.1 14199.7 12129.2 11585.6 12254.9 12945.6
          19892.1 18601.7 16209.1 13170.2 10589.8 10109.4 11256.6 12260.5 19901.5 18493.1 15799.3 12157.1
          8802.45 8298.48 10196.4 11650.3 20348.2 19031 16581.6 13441.5 10618 9335.85 10969.3 12381.3
          21201.2 20076.6 18053.4 15652 13862.9 13087.4 13874 14737.6 22262 21373.3 19831.2 18133.6
          17049.3 16672.3 17039.2 17494.1 23223.8 22540.9 21395.7 20205.3 19480.3 19271.3 19463.5 19709.2
          23794.2 23228.1 22298.6 21360.9 20788 20632.5 20758.3 20920.1 16433 14620.4 11230.3 6874.15
          3234.05 2955.11 4991.54 6624.17 16061.1 13916.8 9682.34 3665.72 -1948.44 -1691.69 2255.3 4908.37
          15798 13269.3 7905.36 -976.941 -11040.1 -10014.1 -1736.58 2767.62 16278.9 13943.5 9305.38 2629.73
          -4180.29 -9265.82 -1589.01 3132.15 17397.4 15389.1 11550.2 6607.1 3690.43 1955.76 4775.34 7344.66
          18901.3 17350.3 14530.8 11294.3 10046 9770.01 10936.8 12136.6 20311 19184.1 17252.3 15261.8
          14496.4 14537.2 15151.4 15748.5 21156.2 20269.4 18807.8 17388.5 16782.9 16849 17267.9 17645.8
          11082.5 8115.82 2277.13 -5953.74 -13392.7 -12552.4 -7027.46 -3337.77 10205.3 6376 -1953.9 -16248
          -32398.1 -28016.9 -14339 -7355.75 9323.12 4274.79 -8570.18 -40324.9 -93187.6 -74763.2 -28708.6 -13623
          9839.08 5322.05 -4584.95 -21760.5 -43054.6 -83618.2 -33687.2 -15414.9 11369.8 7332.7 -1420.69 -15573.6
          -18159.9 -24761.8 -14810.7 -6331.49 13684.9 10637.8 4455.85 -4113.83 -3384.93 -3059.37 13.0791 3240.95
          15938.3 13887.2 10145 6007.97 5924.37 6808.27 8316.17 9700.28 17294.8 15790.4 13241.3 10771
          10382.2 11059.4 12074.4 12880.8 4088.82 -673.24 -10654.7 -26601.6 -42682.2 -38316.6 -24759.1 -17209.9
          2313.85 -4494.55 -21482.8 -61361.5 -122455 -94837.9 -43142.5 -25696.6 192.038 -10276 -46928.2 -277245
          -1.06327e+06 -649624 -98955.7 -42431.9 729.732 -8158.38 -30609.9 -82954.2 -170170 -938806 -149399 -55263.9
          2780.2 -5942.45 -30255.5 -100211 -67531.4 -102170 -68837.1 -32006.8 6496.2 124.629 -15980.1 -53309.6
          -29727.6 -25622.2 -19702.7 -10354 10228.9 6385.53 -1544.54 -12633.9 -7987.2 -4386.39 -1393.99 1680.9
          12446.7 9876.47 5243.64 387.373 1216.66 3395.75 5453.51 7013.94 -4002.38 -10990.2 -26317.2 -52950
          -75134.8 -68604.9 -46240.2 -34069.7 -7021.9 -17839.4 -47810 -136092 -191690 -162954 -77640 -48245
          -11032 -30079.1 -115616 -1.05628e+06 -1.0809e+06 -1.10065e+06 -202492 -83114.2 -10599.7 -27038.7 -76299.2 -239151
          -329795 -377394 -1.07419e+06 -155651 -7950.61 -26865.7 -111505 -1.04973e+06 -183572 -140058 -435685 -84253.7
          -2024.07 -15137.9 -64832.9 -459188 -87260.3 -50292.8 -59322.2 -28307.2 3972.51 -2801.81 -19758.6 -57898.6
          -28998.7 -17089.1 -13081.2 -6806.31 7403.1 3346.1 -4677.92 -14761.2 -10058.6 -4820.9 -1311.57 1300.85
          -12179.7 -21107.7 -40426.6 -73434.1 -102786 -99283 -69481.5 -52679.1 -16388.7 -30258.1 -66966.5 -166254
          -223554 -155973 -98755.6 -68446.2 -22037.5 -46787 -148190 -1.08089e+06 -1.08402e+06 -381485 -204449 -105552
          -21517.7 -47431.2 -154101 -1.09544e+06 -1.12215e+06 -1.08586e+06 -996388 -166323 -16797 -42550.4 -155428 -1.08879e+06
          -323828 -192261 -149619 -71973.6 -8552.82 -27085.3 -110096 -1.03968e+06 -147656 -66151.8 -46315.4 -29496.3
          -539 -9424.42 -33793.8 -100144 -46142.6 -24894 -15696.8 -9880.04 3872.62 -1168.99 -11654.3 -26257.4
          -18142.6 -10013 -4754.37 -1708.07 -19660.8 -30482.6 -52995 -87793.7 -139271 -204768 -111306 -77680.9
          -25160.3 -42317.9 -83126.1 -144498 -253576 -252476 -133774 -92735.2 -32085 -63457.7 -172204 -338783
          -1.083e+06 -1.15066e+06 -230818 -122973 -27358.8 -52017.1 -123344 -342091 -1.08894e+06 -1.11024e+06 -214724 -101885
          -18887.3 -40914.9 -133660 -1.0694e+06 -917827 -181414 -83482.4 -53071.4 -8643.28 -20937.1 -55409.7 -156671
          -119209 -57725.5 -34411.2 -24006.9 -676.153 -7199.25 -21407.1 -43887.5 -35884.7 -21685.7 -12967 -8450.51
          3559.39 -520.598 -8143.74 -16702.3 -14701.4 -8850.47 -4117.21 -1472.72 -25573.1 -39486.4 -70626.2 -117623
          -239503 -1.10183e+06 -220554 -117461 -33249.5 -60763.4 -152538 -230009 -332235 -400552 -192236 -138656
          -44100.7 -123030 -1.05297e+06 -1.09305e+06 -1.08572e+06 -1.09703e+06 -251839 -205170 -29834.9 -58422.2 -156854 -304427
          -1.08389e+06 -262326 -123279 -95894.4 -16269.7 -30442.3 -66874.2 -154457 -180488 -91290.8 -56877.6 -44845.1
          -5600.77 -13172.1 -29370.9 -55049.3 -55737.8 -36605.2 -24598.3 -19046 1657.66 -2627.53 -10675.1 -20198.1
          -20130.9 -13784.2 -8435.45 -5549.59 5377.66 2498.98 -2472.43 -7422.61 -7638.33 -4527.88 -1357.27 507.677
          -26605.4 -39738.3 -67852.1 -118267 -253610 -1.11207e+06 -279863 -157353 -32690.5 -53779 -105317 -196974
          -371005 -1.10531e+06 -317660 -252863 -38248.6 -75797.8 -214626 -733667 -1.085e+06 -393799 -300033 -1.08844e+06
          -25758 -45685.2 -96587.8 -208973 -246381 -144503 -114062 -154175 -12387.2 -22507.4 -44119.8 -78022.3
          -83405.6 -60553.7 -47800.9 -47244.7 -2223.38 -7555.88 -17718.8 -30272.9 -31819.7 -24537.9 -18590.4 -16067
          4411.31 1369.44 -3958.65 -9536.46 -10448.2 -7531.16 -4443.48 -2705.34 7730.74 5641.35 2172.07 -1135.23
          -1863.79 -298.439 1679.02 2916.04 -25186.4 -38722.3 -68844.4 -113171 -185180 -348248 -216846 -150190
          -31520.1 -57516.3 -142791 -233469 -360315 -1.10808e+06 -404899 -232880 -39105.9 -109920 -930578 -1.12365e+06
          -1.0873e+06 -1.08727e+06 -1.0858e+06 -627604 -23822 -50388.2 -158951 -1.03946e+06 -236641 -180868 -155180 -116631
          -9583.36 -20232.1 -47734.3 -115797 -72344.6 -56535.3 -46275.3 -38662.3 475.303 -4346.78 -14078.2 -27665.7
          -24254.8 -19185.9 -14681.3 -11879.9 6773.29 4244.48 -213.382 -4943.18 -5349.46 -3469.27 -1239.76 179.881
          9853.41 8175.02 5403.74 2757.31 2038.38 2966.72 4355.01 5288.2 -20850.6 -31806.6 -55513.2 -96933.1
          -157806 -268762 -234947 -133993 -24522.8 -41350 -85126.2 -193662 -328016 -1.10118e+06 -1.09349e+06 -217022
          -26965 -55864.5 -175484 -1.08923e+06 -1.0817e+06 -1.1105e+06 -276344 -149655 -17419.3 -36223.7 -109436 -808001
          -211721 -164120 -91297 -64684.1 -5922.32 -14664.6 -36969.3 -93416.6 -62283 -48953.5 -34110.3 -26288.4
          2961.92 -1170.53 -9476.41 -21106.7 -18919.4 -14755.6 -9956.57 -7038.56 8709.13 6533.63 2707.76 -1360.11
          -1881.77 -411.555 1622.72 2965.27 11547.7 10111.5 7744.43 5472.99 4762.07 5439.26 6606.14 7423.73
          -17019.2 -26290.8 -46242.7 -81693.7 -137386 -158447 -123010 -88544.5 -19008.6 -31265.8 -60426.2 -124549
          -282290 -323160 -205784 -107762 -19084.1 -35126.4 -80456.7 -229692 -1.08197e+06 -1.08811e+06 -180084 -85446
          -12131 -23976.5 -54631.1 -133884 -172780 -149330 -69518.4 -44392.5 -2915.52 -9479.02 -23495.1 -45803.3
          -50567.6 -42327.8 -26439.8 -18479.2 4834.52 1384.12 -5062.31 -12764.7 -14326.1 -11223.6 -6304.73 -3310.11
          10080.6 8163.98 4880.53 1534.96 612.889 1850.32 3856.94 5198.99 12723.8 11432.4 9322.69 7318.64
          6609.54 7215.51 8332.28 9123.62 -15219.7 -24500.3 -45787.2 -90442.1 -192106 -123611 -82890.3 -62692.6
          -16944.7 -29252.3 -62267.1 -171825 -1.08476e+06 -245214 -110020 -69551.9 -16879.7 -32340.5 -77535 -235418
          -1.08095e+06 -1.03951e+06 -143972 -62769.9 -10806.7 -23060.4 -56570.2 -151451 -171117 -133114 -57183.2 -34162.9
          -2009.37 -8788.23 -23680.2 -48204.2 -48910.9 -37346.6 -21384.2 -13690.1 5567.18 2060.53 -4574.5 -12529.3
          -13037.2 -8986.3 -3826.39 -816.144 10731.8 8823.56 5544.25 2246.45 1665.17 3215.94 5348.97 6721.99
          13338.1 12074.5 10014.5 8094.43 7544.49 8286.22 9466.17 10276.1 -14870.6 -24414.7 -45750.2 -84295.8
          -123183 -91759.2 -64507.3 -50364.4 -17132 -30963.7 -68703.8 -175206 -267845 -132557 -75814.5 -53047.7
          -18451.7 -40764 -135646 -1.06054e+06 -1.08078e+06 -210271 -79671 -46745 -12586.3 -32038.9 -119031 -1.07116e+06
          -198870 -82467.8 -42474 -27338 -2751.81 -11845.9 -36746 -104954 -55530.7 -31135.7 -17333.4 -10819.6
          5415.72 1258.99 -7410.72 -19934.8 -14437.1 -7672.21 -2353.15 537.454 10818.1 8739.6 5035.93 1157
          1574.21 3794.44 6094.22 7486.29 13500.8 12191.4 10038.2 8051.46 7755.39 8720.64 9992.55 10827.8
        </DataArray>
        <DataArray type="Float32" Name="saturation" NumberOfComponents="1" format="ascii">
          0.287909 0.287232 0.286065 0.284737 0.28369 0.283287 0.283423 0.283652 0.287887 0.287169 0.285915 0.284463
          0.283306 0.282905 0.283141 0.283446 0.287973 0.287223 0.285898 0.28433 0.283046 0.282626 0.282978 0.283375
          0.288306 0.287596 0.286355 0.284913 0.283731 0.283232 0.283527 0.283902 0.28888 0.288261 0.287199 0.286011
          0.285092 0.284688 0.284843 0.285098 0.289575 0.289066 0.288211 0.287291 0.286621 0.286332 0.286399 0.286548
          0.290202 0.28979 0.289109 0.288399 0.287897 0.287684 0.287708 0.287794 0.290576 0.290219 0.289637 0.289039
          0.28862 0.288444 0.288451 0.288508 0.286498 0.285632 0.28412 0.282367 0.281004 0.280654 0.281085 0.281535
          0.286403 0.285449 0.283742 0.281683 0.280023 0.279722 0.280444 0.281089 0.28641 0.28537 0.283458 0.281022
          0.278917 0.278611 0.279776 0.280696 0.286746 0.285764 0.284003 0.281862 0.28004 0.279243 0.280262 0.281167
          0.287396 0.286541 0.285051 0.283356 0.282142 0.281628 0.28215 0.28273 0.28822 0.287529 0.286357 0.285109
          0.284333 0.284066 0.284325 0.284649 0.288983 0.28844 0.287546 0.286638 0.286096 0.285941 0.286083 0.286266
          0.289443 0.288987 0.288249 0.287519 0.28708 0.286962 0.287057 0.287181 0.283899 0.282651 0.280428 0.277761
          0.275681 0.275527 0.27667 0.277614 0.283639 0.282178 0.279457 0.275921 0.272926 0.273057 0.275143 0.276622
          0.283457 0.281748 0.278374 0.273426 0.268596 0.269056 0.273035 0.275424 0.283791 0.282196 0.279224 0.275348
          0.271808 0.269395 0.27311 0.275625 0.28458 0.283175 0.280632 0.277604 0.275935 0.27498 0.276547 0.27804
          0.285668 0.284546 0.28259 0.280468 0.279682 0.279511 0.280241 0.281009 0.286718 0.285877 0.284477 0.283088
          0.282567 0.282595 0.283012 0.283422 0.287362 0.286687 0.2856 0.284574 0.284144 0.284191 0.284488 0.284758
          0.280334 0.278501 0.275155 0.270945 0.267566 0.26793 0.270435 0.272225 0.279782 0.277469 0.272923 0.266361
          0.260342 0.261854 0.267161 0.27028 0.279235 0.276263 0.269715 0.257798 0.245288 0.248956 0.26161 0.267467
          0.279554 0.276859 0.271609 0.264164 0.256975 0.24712 0.259912 0.266708 0.280516 0.278033 0.273197 0.266641
          0.265581 0.263033 0.266962 0.270765 0.282024 0.280053 0.276365 0.27184 0.272202 0.272365 0.273942 0.275685
          0.283554 0.282158 0.279744 0.277255 0.277206 0.277723 0.278622 0.279468 0.284507 0.283451 0.28173 0.280137
          0.279892 0.280319 0.280968 0.281493 0.276159 0.273583 0.268768 0.262361 0.257086 0.258421 0.263034 0.265966
          0.275175 0.271653 0.264271 0.252037 0.240484 0.244987 0.256949 0.262689 0.274037 0.268938 0.255849 0.225705
          0.206228 0.212315 0.244253 0.257161 0.274321 0.269905 0.260949 0.247253 0.234497 0.207646 0.236877 0.253578
          0.275431 0.270951 0.261071 0.244033 0.25057 0.243696 0.250271 0.260474 0.277539 0.274001 0.266472 0.254093
          0.261254 0.262717 0.264965 0.268902 0.279796 0.277475 0.273133 0.267894 0.269985 0.271706 0.27321 0.274831
          0.28121 0.279577 0.276814 0.27414 0.274582 0.275771 0.276934 0.277844 0.271895 0.268618 0.262464 0.254189
          0.248876 0.250324 0.256045 0.259785 0.270437 0.26571 0.255599 0.238576 0.23232 0.23529 0.248344 0.255477
          0.268599 0.261132 0.241513 0.206301 0.206046 0.205848 0.231322 0.247221 0.268792 0.262203 0.248627 0.22832
          0.222721 0.220482 0.206115 0.236128 0.270002 0.262266 0.242157 0.20637 0.23311 0.238054 0.218182 0.246994
          0.272888 0.266824 0.251201 0.217365 0.246405 0.254908 0.252542 0.261752 0.276093 0.272494 0.264943 0.252901
          0.261508 0.266015 0.2677 0.270539 0.278074 0.275744 0.271563 0.266983 0.269036 0.271493 0.273253 0.274627
          0.268093 0.264416 0.257767 0.249245 0.243591 0.244195 0.250124 0.254261 0.266303 0.26107 0.250701 0.234923
          0.229531 0.236091 0.244288 0.25036 0.264057 0.255889 0.237026 0.206047 0.206015 0.220306 0.231147 0.243125
          0.264257 0.255706 0.236311 0.2059 0.205639 0.205996 0.206958 0.234915 0.266135 0.257125 0.236155 0.205967
          0.22303 0.232266 0.236851 0.249566 0.269723 0.262187 0.242382 0.206477 0.237092 0.250891 0.256024 0.261334
          0.273653 0.269323 0.259876 0.244045 0.256073 0.262984 0.26659 0.269116 0.276037 0.273326 0.268323 0.262485
          0.265587 0.269056 0.271526 0.273049 0.264982 0.260993 0.254177 0.246302 0.238157 0.231119 0.242189 0.248335
          0.262886 0.257195 0.247218 0.237486 0.227277 0.227354 0.238888 0.245371 0.260447 0.251529 0.234279 0.222269
          0.206025 0.20537 0.228955 0.240408 0.262089 0.254439 0.240354 0.222106 0.205965 0.205754 0.230258 0.243745
          0.265289 0.257618 0.238904 0.206164 0.207912 0.233326 0.247147 0.254156 0.269681 0.264482 0.25354 0.236009
          0.240966 0.252945 0.259673 0.263313 0.273582 0.270354 0.2643 0.256729 0.259194 0.264192 0.26775 0.26977
          0.275862 0.273663 0.269912 0.266174 0.267008 0.269586 0.271839 0.27317 0.262735 0.258056 0.249866 0.241206
          0.228294 0.205837 0.229774 0.24123 0.260057 0.252184 0.236498 0.229019 0.222597 0.219517 0.232268 0.238237
          0.256666 0.2404 0.206336 0.205924 0.205998 0.205884 0.227399 0.231083 0.261217 0.252768 0.235988 0.224084
          0.206016 0.226677 0.240364 0.244796 0.266352 0.261007 0.250722 0.236269 0.23342 0.24564 0.253161 0.256448
          0.271115 0.267661 0.261378 0.253634 0.253455 0.258962 0.263093 0.265225 0.274819 0.272582 0.268759 0.26477
          0.264796 0.267398 0.269777 0.27114 0.276891 0.275276 0.27266 0.270249 0.270148 0.271637 0.273229 0.274203
          0.262359 0.257979 0.250496 0.241108 0.227275 0.205736 0.225541 0.235929 0.260244 0.253968 0.243165 0.231825
          0.220761 0.205803 0.223357 0.227327 0.258442 0.248734 0.230267 0.210693 0.206005 0.219791 0.224334 0.20597
          0.262667 0.256205 0.244672 0.23075 0.227789 0.237485 0.241754 0.236303 0.268002 0.263878 0.25666 0.248263
          0.247162 0.252236 0.255601 0.255759 0.272786 0.270186 0.265759 0.261065 0.260537 0.263116 0.265407 0.266436
          0.27634 0.274664 0.271917 0.269272 0.26886 0.270198 0.271678 0.272543 0.27827 0.277043 0.275098 0.273344
          0.272969 0.273779 0.27483 0.275506 0.262876 0.258294 0.250269 0.241894 0.232951 0.221808 0.23008 0.236781
          0.260638 0.252998 0.237703 0.228751 0.221243 0.205775 0.219344 0.228796 0.258174 0.24241 0.207749 0.205624
          0.205982 0.205982 0.205997 0.21279 0.263382 0.254882 0.235745 0.20648 0.228509 0.233381 0.236184 0.241357
          0.269251 0.264757 0.25562 0.241485 0.249484 0.253249 0.256035 0.258313 0.274186 0.271726 0.267272 0.261979
          0.263221 0.26517 0.267016 0.268224 0.277702 0.276246 0.273823 0.271434 0.271237 0.27216 0.27329 0.27403
          0.279563 0.278536 0.276906 0.275418 0.275025 0.275534 0.276308 0.276839 0.264515 0.260541 0.253514 0.24461
          0.235877 0.22625 0.228637 0.238858 0.263121 0.257486 0.246821 0.232134 0.222813 0.205843 0.20592 0.230066
          0.26223 0.253422 0.233934 0.205962 0.206038 0.205752 0.225762 0.236846 0.26588 0.259085 0.242488 0.209462
          0.230513 0.235159 0.245638 0.251236 0.270961 0.267023 0.258846 0.245246 0.251813 0.255278 0.259772 0.262474
          0.275531 0.273325 0.269299 0.264416 0.265276 0.266985 0.269082 0.270429 0.27886 0.277561 0.275391 0.273228
          0.27296 0.27372 0.2748 0.275533 0.28063 0.279723 0.278278 0.276946 0.276539 0.276926 0.277604 0.278087
          0.266044 0.262473 0.256045 0.247507 0.238405 0.235803 0.240403 0.246158 0.26524 0.260725 0.252268 0.240179
          0.225391 0.223065 0.231029 0.242761 0.26521 0.259439 0.247759 0.229043 0.206036 0.205974 0.233461 0.246758
          0.268114 0.263324 0.253744 0.238873 0.234218 0.236886 0.250116 0.256581 0.272437 0.269298 0.263505 0.256171
          0.254833 0.257192 0.262419 0.265452 0.27658 0.274671 0.271376 0.267837 0.267167 0.268514 0.270778 0.272239
          0.279704 0.27853 0.276607 0.274753 0.274259 0.274923 0.276028 0.276788 0.28139 0.280556 0.279235 0.278024
          0.277606 0.277963 0.278631 0.279113 0.26679 0.26313 0.256175 0.245799 0.232281 0.240315 0.247266 0.251713
          0.266074 0.26142 0.251817 0.23432 0.206007 0.227873 0.242394 0.250108 0.266101 0.260361 0.248366 0.228602
          0.206046 0.206479 0.237552 0.251695 0.2687 0.263668 0.25324 0.236628 0.234395 0.238978 0.253083 0.259755
          0.272895 0.269614 0.263435 0.255488 0.25529 0.258726 0.264309 0.267438 0.277 0.275037 0.271614 0.26794
          0.267719 0.269523 0.271982 0.273509 0.280112 0.278929 0.276987 0.275138 0.274823 0.275671 0.276874 0.277672
          0.281794 0.280968 0.279663 0.278488 0.278159 0.278603 0.279323 0.279826 0.266936 0.263161 0.256186 0.246985
          0.240378 0.245552 0.251278 0.254888 0.265998 0.260828 0.250301 0.233963 0.22631 0.239054 0.248731 0.254163
          0.265463 0.257664 0.238636 0.206256 0.206048 0.230638 0.247921 0.255901 0.267915 0.260463 0.240993 0.206146
          0.23165 0.24735 0.257148 0.262096 0.272519 0.268239 0.258918 0.243225 0.253509 0.260769 0.265915 0.268694
          0.276913 0.274604 0.270254 0.264874 0.26712 0.270132 0.272721 0.274219 0.280166 0.278878 0.276695 0.27455
          0.274774 0.275993 0.277305 0.278124 0.281901 0.281044 0.279678 0.278462 0.278285 0.278867 0.279649 0.280172
        </DataArray>
        <DataArray type="Float32" Name="process rank" NumberOfComponents="1" format="ascii">
          0 0 0 0 0 0 0 0 0 0 0 0
          0 0 0 0 0 0 0 0 0 0 0 0
          0 0 0 0 0 0 0 0 0 0 0 0
          0 0 0 0 0 0 0 0 0 0 0 0
          0 0 0 0 0 0 0 0 0 0 0 0
          0 0 0 0 0 0 0 0 0 0 0 0
          0 0 0 0 0 0 0 0 0 0 0 0
          0 0 0 0 0 0 0 0 0 0 0 0
          0 0 0 0 0 0 0 0 0 0 0 0
          0 0 0 0 0 0 0 0 0 0 0 0
          0 0 0 0 0 0 0 0 0 0 0 0
          0 0 0 0 0 0 0 0 0 0 0 0
          0 0 0 0 0 0 0 0 0 0 0 0
          0 0 0 0 0 0 0 0 0 0 0 0
          0 0 0 0 0 0 0 0 0 0 0 0
          0 0 0 0 0 0 0 0 0 0 0 0
          0 0 0 0 0 0 0 0 0 0 0 0
          0 0 0 0 0 0 0 0 0 0 0 0
          0 0 0 0 0 0 0 0 0 0 0 0
          0 0 0 0 0 0 0 0 0 0 0 0
          0 0 0 0 0 0 0 0 0 0 0 0
          0 0 0 0 0 0 0 0 0 0 0 0
          0 0 0 0 0 0 0 0 0 0 0 0
          0 0 0 0 0 0 0 0 0 0 0 0
          0 0 0 0 0 0 0 0 0 0 0 0
          0 0 0 0 0 0 0 0 0 0 0 0
          0 0 0 0 0 0 0 0 0 0 0 0
          0 0 0 0 0 0 0 0 0 0 0 0
          0 0 0 0 0 0 0 0 0 0 0 0
          0 0 0 0 0 0 0 0 0 0 0 0
          0 0 0 0 0 0 0 0 0 0 0 0
          0 0 0 0 0 0 0 0 0 0 0 0
          0 0 0 0 0 0 0 0 0 0 0 0
          0 0 0 0 0 0 0 0 0 0 0 0
          0 0 0 0 0 0 0 0 0 0 0 0
          0 0 0 0 0 0 0 0 0 0 0 0
          0 0 0 0 0 0 0 0 0 0 0 0
          0 0 0 0 0 0 0 0 0 0 0 0
          0 0 0 0 0 0 0 0 0 0 0 0
          0 0 0 0 0 0 0 0 0 0 0 0
          0 0 0 0 0 0 0 0 0 0 0 0
          0 0 0 0 0 0 0 0 0 0 0 0
          0 0 0 0 0 0 0 0 0 0 0 0
          0 0 0 0 0 0 0 0 0 0 0 0
          0 0 0 0 0 0 0 0 0 0 0 0
          0 0 0 0 0 0 0 0 0 0 0 0
          0 0 0 0 0 0 0 0 0 0 0 0
          0 0 0 0 0 0 0 0 0 0 0 0
          0 0 0 0 0 0 0 0 0 0 0 0
          0 0 0 0 0 0 0 0 0 0 0 0
          0 0 0 0 0 0 0 0 0 0 0 0
          0 0 0 0 0 0 0 0 0 0 0 0
          0 0 0 0 0 0 0 0 0 0 0 0
          0 0 0 0 0 0 0 0 0 0 0 0
          0 0 0 0 0 0 0 0 0 0 0 0
          0 0 0 0 0 0 0 0 0 0 0 0
          0 0 0 0 0 0 0 0 0 0 0 0
          0 0 0 0 0 0 0 0 0 0 0 0
          0 0 0 0 0 0 0 0 0 0 0 0
          0 0 0 0 0 0 0 0 0 0 0 0
          0 0 0 0 0 0 0 0 0 0 0 0
          0 0 0 0 0 0 0 0 0 0 0 0
          0 0 0 0 0 0 0 0 0 0 0 0
          0 0 0 0 0 0 0 0 0 0 0 0
          0 0 0 0 0 0 0 0 0 0 0 0
          0 0 0 0 0 0 0 0 0 0 0 0
          0 0 0 0 0 0 0 0 0 0 0 0
          0 0 0 0 0 0 0 0 0 0 0 0
          0 0 0 0 0 0 0 0 0 0 0 0
          0 0 0 0 0 0 0 0 0 0 0 0
          0 0 0 0 0 0 0 0 0 0 0 0
          0 0 0 0 0 0 0 0 0 0 0 0
          0 0 0 0 0 0 0 0 0 0 0 0
          0 0 0 0 0 0 0 0 0 0 0 0
          0 0 0 0 0 0 0 0 0 0 0 0
          0 0 0 0 0 0 0 0 0 0 0 0
          0 0 0 0 0 0 0 0 0 0 0 0
          0 0 0 0 0 0 0 0 0 0 0 0
          0 0 0 0 0 0 0 0 0 0 0 0
          0 0 0 0 0 0 0 0 0 0 0 0
        </DataArray>
      </CellData>
      <Points>
        <DataArray type="Float32" Name="Coordinates" NumberOfComponents="3" format="ascii">
          -0.04 -0.04 -0.15 -0.03 -0.04 -0.15 -0.04 -0.03 -0.15 -0.03 -0.03 -0.15
          -0.04 -0.04 -0.14 -0.03 -0.04 -0.14 -0.04 -0.03 -0.14 -0.03 -0.03 -0.14
          -0.02 -0.04 -0.15 -0.02 -0.03 -0.15 -0.02 -0.04 -0.14 -0.02 -0.03 -0.14
          -0.01 -0.04 -0.15 -0.01 -0.03 -0.15 -0.01 -0.04 -0.14 -0.01 -0.03 -0.14
          0 -0.04 -0.15 0 -0.03 -0.15 0 -0.04 -0.14 0 -0.03 -0.14
          0.01 -0.04 -0.15 0.01 -0.03 -0.15 0.01 -0.04 -0.14 0.01 -0.03 -0.14
          0.02 -0.04 -0.15 0.02 -0.03 -0.15 0.02 -0.04 -0.14 0.02 -0.03 -0.14
          0.03 -0.04 -0.15 0.03 -0.03 -0.15 0.03 -0.04 -0.14 0.03 -0.03 -0.14
          0.04 -0.04 -0.15 0.04 -0.03 -0.15 0.04 -0.04 -0.14 0.04 -0.03 -0.14
          -0.04 -0.02 -0.15 -0.03 -0.02 -0.15 -0.04 -0.02 -0.14 -0.03 -0.02 -0.14
          -0.02 -0.02 -0.15 -0.02 -0.02 -0.14 -0.01 -0.02 -0.15 -0.01 -0.02 -0.14
          0 -0.02 -0.15 0 -0.02 -0.14 0.01 -0.02 -0.15 0.01 -0.02 -0.14
          0.02 -0.02 -0.15 0.02 -0.02 -0.14 0.03 -0.02 -0.15 0.03 -0.02 -0.14
          0.04 -0.02 -0.15 0.04 -0.02 -0.14 -0.04 -0.01 -0.15 -0.03 -0.01 -0.15
          -0.04 -0.01 -0.14 -0.03 -0.01 -0.14 -0.02 -0.01 -0.15 -0.02 -0.01 -0.14
          -0.01 -0.01 -0.15 -0.01 -0.01 -0.14 0 -0.01 -0.15 0 -0.01 -0.14
          0.01 -0.01 -0.15 0.01 -0.01 -0.14 0.02 -0.01 -0.15 0.02 -0.01 -0.14
          0.03 -0.01 -0.15 0.03 -0.01 -0.14 0.04 -0.01 -0.15 0.04 -0.01 -0.14
          -0.04 0 -0.15 -0.03 0 -0.15 -0.04 0 -0.14 -0.03 0 -0.14
          -0.02 0 -0.15 -0.02 0 -0.14 -0.01 0 -0.15 -0.01 0 -0.14
          0 0 -0.15 0 0 -0.14 0.01 0 -0.15 0.01 0 -0.14
          0.02 0 -0.15 0.02 0 -0.14 0.03 0 -0.15 0.03 0 -0.14
          0.04 0 -0.15 0.04 0 -0.14 -0.04 0.01 -0.15 -0.03 0.01 -0.15
          -0.04 0.01 -0.14 -0.03 0.01 -0.14 -0.02 0.01 -0.15 -0.02 0.01 -0.14
          -0.01 0.01 -0.15 -0.01 0.01 -0.14 0 0.01 -0.15 0 0.01 -0.14
          0.01 0.01 -0.15 0.01 0.01 -0.14 0.02 0.01 -0.15 0.02 0.01 -0.14
          0.03 0.01 -0.15 0.03 0.01 -0.14 0.04 0.01 -0.15 0.04 0.01 -0.14
          -0.04 0.02 -0.15 -0.03 0.02 -0.15 -0.04 0.02 -0.14 -0.03 0.02 -0.14
          -0.02 0.02 -0.15 -0.02 0.02 -0.14 -0.01 0.02 -0.15 -0.01 0.02 -0.14
          0 0.02 -0.15 0 0.02 -0.14 0.01 0.02 -0.15 0.01 0.02 -0.14
          0.02 0.02 -0.15 0.02 0.02 -0.14 0.03 0.02 -0.15 0.03 0.02 -0.14
          0.04 0.02 -0.15 0.04 0.02 -0.14 -0.04 0.03 -0.15 -0.03 0.03 -0.15
          -0.04 0.03 -0.14 -0.03 0.03 -0.14 -0.02 0.03 -0.15 -0.02 0.03 -0.14
          -0.01 0.03 -0.15 -0.01 0.03 -0.14 0 0.03 -0.15 0 0.03 -0.14
          0.01 0.03 -0.15 0.01 0.03 -0.14 0.02 0.03 -0.15 0.02 0.03 -0.14
          0.03 0.03 -0.15 0.03 0.03 -0.14 0.04 0.03 -0.15 0.04 0.03 -0.14
          -0.04 0.04 -0.15 -0.03 0.04 -0.15 -0.04 0.04 -0.14 -0.03 0.04 -0.14
          -0.02 0.04 -0.15 -0.02 0.04 -0.14 -0.01 0.04 -0.15 -0.01 0.04 -0.14
          0 0.04 -0.15 0 0.04 -0.14 0.01 0.04 -0.15 0.01 0.04 -0.14
          0.02 0.04 -0.15 0.02 0.04 -0.14 0.03 0.04 -0.15 0.03 0.04 -0.14
          0.04 0.04 -0.15 0.04 0.04 -0.14 -0.04 -0.04 -0.13 -0.03 -0.04 -0.13
          -0.04 -0.03 -0.13 -0.03 -0.03 -0.13 -0.02 -0.04 -0.13 -0.02 -0.03 -0.13
          -0.01 -0.04 -0.13 -0.01 -0.03 -0.13 0 -0.04 -0.13 0 -0.03 -0.13
          0.01 -0.04 -0.13 0.01 -0.03 -0.13 0.02 -0.04 -0.13 0.02 -0.03 -0.13
          0.03 -0.04 -0.13 0.03 -0.03 -0.13 0.04 -0.04 -0.13 0.04 -0.03 -0.13
          -0.04 -0.02 -0.13 -0.03 -0.02 -0.13 -0.02 -0.02 -0.13 -0.01 -0.02 -0.13
          0 -0.02 -0.13 0.01 -0.02 -0.13 0.02 -0.02 -0.13 0.03 -0.02 -0.13
          0.04 -0.02 -0.13 -0.04 -0.01 -0.13 -0.03 -0.01 -0.13 -0.02 -0.01 -0.13
          -0.01 -0.01 -0.13 0 -0.01 -0.13 0.01 -0.01 -0.13 0.02 -0.01 -0.13
          0.03 -0.01 -0.13 0.04 -0.01 -0.13 -0.04 0 -0.13 -0.03 0 -0.13
          -0.02 0 -0.13 -0.01 0 -0.13 0 0 -0.13 0.01 0 -0.13
          0.02 0 -0.13 0.03 0 -0.13 0.04 0 -0.13 -0.04 0.01 -0.13
          -0.03 0.01 -0.13 -0.02 0.01 -0.13 -0.01 0.01 -0.13 0 0.01 -0.13
          0.01 0.01 -0.13 0.02 0.01 -0.13 0.03 0.01 -0.13 0.04 0.01 -0.13
          -0.04 0.02 -0.13 -0.03 0.02 -0.13 -0.02 0.02 -0.13 -0.01 0.02 -0.13
          0 0.02 -0.13 0.01 0.02 -0.13 0.02 0.02 -0.13 0.03 0.02 -0.13
          0.04 0.02 -0.13 -0.04 0.03 -0.13 -0.03 0.03 -0.13 -0.02 0.03 -0.13
          -0.01 0.03 -0.13 0 0.03 -0.13 0.01 0.03 -0.13 0.02 0.03 -0.13
          0.03 0.03 -0.13 0.04 0.03 -0.13 -0.04 0.04 -0.13 -0.03 0.04 -0.13
          -0.02 0.04 -0.13 -0.01 0.04 -0.13 0 0.04 -0.13 0.01 0.04 -0.13
          0.02 0.04 -0.13 0.03 0.04 -0.13 0.04 0.04 -0.13 -0.04 -0.04 -0.12
          -0.03 -0.04 -0.12 -0.04 -0.03 -0.12 -0.03 -0.03 -0.12 -0.02 -0.04 -0.12
          -0.02 -0.03 -0.12 -0.01 -0.04 -0.12 -0.01 -0.03 -0.12 0 -0.04 -0.12
          0 -0.03 -0.12 0.01 -0.04 -0.12 0.01 -0.03 -0.12 0.02 -0.04 -0.12
          0.02 -0.03 -0.12 0.03 -0.04 -0.12 0.03 -0.03 -0.12 0.04 -0.04 -0.12
          0.04 -0.03 -0.12 -0.04 -0.02 -0.12 -0.03 -0.02 -0.12 -0.02 -0.02 -0.12
          -0.01 -0.02 -0.12 0 -0.02 -0.12 0.01 -0.02 -0.12 0.02 -0.02 -0.12
          0.03 -0.02 -0.12 0.04 -0.02 -0.12 -0.04 -0.01 -0.12 -0.03 -0.01 -0.12
          -0.02 -0.01 -0.12 -0.01 -0.01 -0.12 0 -0.01 -0.12 0.01 -0.01 -0.12
          0.02 -0.01 -0.12 0.03 -0.01 -0.12 0.04 -0.01 -0.12 -0.04 0 -0.12
          -0.03 0 -0.12 -0.02 0 -0.12 -0.01 0 -0.12 0 0 -0.12
          0.01 0 -0.12 0.02 0 -0.12 0.03 0 -0.12 0.04 0 -0.12
          -0.04 0.01 -0.12 -0.03 0.01 -0.12 -0.02 0.01 -0.12 -0.01 0.01 -0.12
          0 0.01 -0.12 0.01 0.01 -0.12 0.02 0.01 -0.12 0.03 0.01 -0.12
          0.04 0.01 -0.12 -0.04 0.02 -0.12 -0.03 0.02 -0.12 -0.02 0.02 -0.12
          -0.01 0.02 -0.12 0 0.02 -0.12 0.01 0.02 -0.12 0.02 0.02 -0.12
          0.03 0.02 -0.12 0.04 0.02 -0.12 -0.04 0.03 -0.12 -0.03 0.03 -0.12
          -0.02 0.03 -0.12 -0.01 0.03 -0.12 0 0.03 -0.12 0.01 0.03 -0.12
          0.02 0.03 -0.12 0.03 0.03 -0.12 0.04 0.03 -0.12 -0.04 0.04 -0.12
          -0.03 0.04 -0.12 -0.02 0.04 -0.12 -0.01 0.04 -0.12 0 0.04 -0.12
          0.01 0.04 -0.12 0.02 0.04 -0.12 0.03 0.04 -0.12 0.04 0.04 -0.12
          -0.04 -0.04 -0.11 -0.03 -0.04 -0.11 -0.04 -0.03 -0.11 -0.03 -0.03 -0.11
          -0.02 -0.04 -0.11 -0.02 -0.03 -0.11 -0.01 -0.04 -0.11 -0.01 -0.03 -0.11
          0 -0.04 -0.11 0 -0.03 -0.11 0.01 -0.04 -0.11 0.01 -0.03 -0.11
          0.02 -0.04 -0.11 0.02 -0.03 -0.11 0.03 -0.04 -0.11 0.03 -0.03 -0.11
          0.04 -0.04 -0.11 0.04 -0.03 -0.11 -0.04 -0.02 -0.11 -0.03 -0.02 -0.11
          -0.02 -0.02 -0.11 -0.01 -0.02 -0.11 0 -0.02 -0.11 0.01 -0.02 -0.11
          0.02 -0.02 -0.11 0.03 -0.02 -0.11 0.04 -0.02 -0.11 -0.04 -0.01 -0.11
          -0.03 -0.01 -0.11 -0.02 -0.01 -0.11 -0.01 -0.01 -0.11 0 -0.01 -0.11
          0.01 -0.01 -0.11 0.02 -0.01 -0.11 0.03 -0.01 -0.11 0.04 -0.01 -0.11
          -0.04 0 -0.11 -0.03 0 -0.11 -0.02 0 -0.11 -0.01 0 -0.11
          0 0 -0.11 0.01 0 -0.11 0.02 0 -0.11 0.03 0 -0.11
          0.04 0 -0.11 -0.04 0.01 -0.11 -0.03 0.01 -0.11 -0.02 0.01 -0.11
          -0.01 0.01 -0.11 0 0.01 -0.11 0.01 0.01 -0.11 0.02 0.01 -0.11
          0.03 0.01 -0.11 0.04 0.01 -0.11 -0.04 0.02 -0.11 -0.03 0.02 -0.11
          -0.02 0.02 -0.11 -0.01 0.02 -0.11 0 0.02 -0.11 0.01 0.02 -0.11
          0.02 0.02 -0.11 0.03 0.02 -0.11 0.04 0.02 -0.11 -0.04 0.03 -0.11
          -0.03 0.03 -0.11 -0.02 0.03 -0.11 -0.01 0.03 -0.11 0 0.03 -0.11
          0.01 0.03 -0.11 0.02 0.03 -0.11 0.03 0.03 -0.11 0.04 0.03 -0.11
          -0.04 0.04 -0.11 -0.03 0.04 -0.11 -0.02 0.04 -0.11 -0.01 0.04 -0.11
          0 0.04 -0.11 0.01 0.04 -0.11 0.02 0.04 -0.11 0.03 0.04 -0.11
          0.04 0.04 -0.11 -0.04 -0.04 -0.1 -0.03 -0.04 -0.1 -0.04 -0.03 -0.1
          -0.03 -0.03 -0.1 -0.02 -0.04 -0.1 -0.02 -0.03 -0.1 -0.01 -0.04 -0.1
          -0.01 -0.03 -0.1 0 -0.04 -0.1 0 -0.03 -0.1 0.01 -0.04 -0.1
          0.01 -0.03 -0.1 0.02 -0.04 -0.1 0.02 -0.03 -0.1 0.03 -0.04 -0.1
          0.03 -0.03 -0.1 0.04 -0.04 -0.1 0.04 -0.03 -0.1 -0.04 -0.02 -0.1
          -0.03 -0.02 -0.1 -0.02 -0.02 -0.1 -0.01 -0.02 -0.1 0 -0.02 -0.1
          0.01 -0.02 -0.1 0.02 -0.02 -0.1 0.03 -0.02 -0.1 0.04 -0.02 -0.1
          -0.04 -0.01 -0.1 -0.03 -0.01 -0.1 -0.02 -0.01 -0.1 -0.01 -0.01 -0.1
          0 -0.01 -0.1 0.01 -0.01 -0.1 0.02 -0.01 -0.1 0.03 -0.01 -0.1
          0.04 -0.01 -0.1 -0.04 0 -0.1 -0.03 0 -0.1 -0.02 0 -0.1