<?xml version="1.0"?>
<VTKFile type="UnstructuredGrid" version="0.1" byte_order="LittleEndian">
  <UnstructuredGrid>
    <Piece NumberOfCells="960" NumberOfPoints="1296">
      <CellData Scalars="p (Pa)">
        <DataArray type="Float32" Name="p (Pa)" NumberOfComponents="1" format="ascii">
          36682.7 36659.5 36599.2 36499.6 36425.6 36488.2 36585.7 36641.5 36674.4 36635.6 36531.6 36351.8
          36204.1 36314.4 36493.9 36596.4 36666.3 36611.4 36461 36188.4 35936.6 36079.3 36363.5 36530.7
          36670.2 36624.6 36503.8 36293.2 36089.6 36095.3 36342.7 36512.3 36677.6 36646.7 36569.4 36450.6
          36366.1 36364 36487.8 36581.3 36685.8 36669.5 36631.2 36580.1 36558.1 36564.2 36610.8 36647
          36691.5 36684.8 36669.8 36652.1 36648.7 36654 36668.7 36679.8 36694.1 36691.4 36685.6 36679.6
          36679.6 36682.6 36687.4 36690.8 36554.6 36478.1 36276.7 35937.7 35673 35899.5 36233.3 36419.9
          36525.7 36392.9 36032.4 35388 34814.3 35246.6 35897.9 36258 36495 36300.2 35754.2 34710.5
          33622.4 34243.1 35371.7 36001.1 36506.9 36343.8 35908.6 35131.9 34315.3 34159.5 35206.6 35894
          36528.9 36409.6 36109.6 35651.5 35371.9 35304.2 35794.5 36162.5 36557.9 36492.2 36336.5 36132.3
          36081.3 36099.2 36276.4 36415 36580.1 36552.4 36490.2 36418.5 36418.6 36441.9 36497 36538.8
          36590.3 36579.1 36555.1 36530.5 36535.3 36548.7 36566.7 36579.3 36358.7 36107 35443.3 34305.7
          33363.1 34185.7 35310.3 35922.7 36256.4 35804 34566.1 32268.2 29988.9 31753.6 34110.2 35351.2
          36140.4 35446.1 33454.5 29334.6 24190.7 27338 32008.5 34363.7 36175 35590.1 34030.7 31172.4
          27881.8 26159 30979 33804.3 36235.2 35766.7 34574.3 32728.6 31982.9 31471.5 33427.9 34858.3
          36340.6 36070.8 35422.5 34569.1 34568.8 34636.1 35298.7 35821.3 36427.9 36312.2 36048.2 35745.2
          35814.6 35924 36128.9 36284.1 36469 36422.2 36320.5 36216.5 36256.9 36319 36387 36433.4
          36022 35344.4 33557.9 30412 27586.9 30128.6 33250.2 34880.3 35721.4 34448.2 30919 23886.3
          15631.5 22335.7 29710.3 33236 35350.1 33268.4 26987.5 11522.1 -15215.7 3510.72 22483.3 30087.9
          35427.8 33673.6 28968.1 19780.3 7814.26 -6850.82 17090.3 27672.3 35540.9 33966.1 29791.2 22592.9
          22379.2 19703.7 26541.9 31277 35865.7 34924.2 32590.1 29273.1 30354.4 30707.2 32710.9 34333.1
          36157.2 35747.6 34790 33645.8 34197.1 34667.5 35282.9 35754.8 36297.3 36131.5 35762.2 35376.2
          35602.3 35853.2 36065.9 36206.3 35494.9 34055.8 30230.3 23148 16312.6 22739.9 29745.9 33166.4
          34786.8 31910.1 23590.7 4300.39 -24527.7 348.651 21209.6 29441.2 33818.2 28638 10781.4 -59024.3
          -295181 -101909 -1326.54 21169 33932.4 29598.2 17442.5 -10391.9 -54101.3 -220913 -30406.7 11931.9
          34024.6 29570.4 16164.4 -17042 -1302.71 -12147.6 8702.74 23225.8 34845.4 32145.1 24871.7 11601.6
          20424.4 22725.4 27160.1 31329.2 35633.9 34459 31575.4 27661.8 30470.1 32269.6 33659.9 34796.3
          36018.9 35544.2 34448.1 33220.6 34152.2 34997.7 35523.3 35858.6 34884.3 32577.7 26388.8 14572.9
          7099.17 15088 25974 31282.3 33616.8 28665.3 13434.6 -27878.5 -52813.7 -25332 11545.7 25268.5
          31687.5 21627.3 -20112 -290002 -317738 -287043 -40447.3 8894.92 31677.8 22929.6 -4714.04 -88854.6
          -136497 -127268 -270913 -23604.7 31568.1 21246 -20609.7 -287749 -51092 -19621.6 -41834.2 9837.1
          33182.8 27010.9 6832.82 -63350.8 463.542 16395.6 18519.3 27471.8 34819.9 32220.7 25199.1 12767.9
          23727.9 29576.3 31650.8 33719 35621.3 34590.3 32068.7 28843.7 31667.2 33887.3 34891.6 35489.7
          34401.9 31738.8 25016.3 12766.9 3695.43 9494.86 22923.1 29638.8 32761.6 27061.6 10669.2 -30757.7
          -52857.6 -12816.6 13510.7 25034.1 30169.6 18177.9 -28520 -296600 -322165 -102683 -17965 13158.2
          29706.1 16284 -37568.4 -335154 -366571 -308589 -124600 -4592.9 29908.5 15932.3 -41989 -319593
          -115109 -44999.1 -6928.29 17519.4 31908.1 22503.7 -15087.5 -246603 -26881.8 9997.09 22385.7 29251.7
          34187.4 30343.9 18830.5 -7350.96 16582.8 27445.5 31859.2 33962.8 35306.3 33822.2 29969.2 24332
          29404.1 33048.8 34724 35434.2 33643.2 30363.9 22981.7 11709.8 -8023.34 -31319.4 9033.08 24027.6
          31345.9 24334 7201.32 -17231.6 -63754.3 -45437 3450.54 19893.9 27935 13219.3 -34953.7 -113473
          -321818 -295918 -32717.3 7906.26 29209.8 17546.3 -17770.2 -126096 -323892 -286090 -32574.9 10560
          30440.3 19092.6 -25364.2 -287237 -165848 -32073 9759.67 23860 32768.2 26731.9 8924.28 -34789.8
          -8267.22 15282.6 26575.3 31350.7 34584.5 32079.6 25700.9 15715.6 22628.1 29299.5 32930.9 34507
          35418.9 34420.1 32055.4 29174.1 31333.2 33664.4 34974.2 35522.7 32636 27847 16431.3 -397.975
          -50545.8 -299659 -32262 11398.4 29029.9 17054.4 -19608 -53452.1 -104311 -114786 -20719.6 3777.4
          23114.9 -9987.31 -260192 -322955 -329896 -330675 -59244.6 -26805.9 28061.5 14009.7 -31886.8 -113717
          -318059 -76557.8 -7847.75 7642.97 31673.6 24774.2 5935.66 -35742.4 -41313 -630.258 18455.8 25075.6
          33904.9 30733.4 22993.2 10501.7 13143.3 23278.4 29575.3 32221.7 35111.3 33854.7 30962.1 27240.4
          28677.5 31782 33883.3 34813.3 35595.5 35105.3 34013.9 32804.6 33409.8 34504.5 35248.3 35575.7
          33081 29213.5 20074.1 2138.91 -56933 -335765 -54807.4 -8.49659 30470.4 22397.2 2561.36 -28755.6
          -115995 -345268 -77846.7 -36245.4 26860.5 10495.7 -43137.7 -145615 -327858 -153413 -89449.9 -256233
          29962.8 20806.5 -3291.17 -52629.3 -81806.8 -27988.4 -8351.45 -19545.4 32935.8 28663.9 18483 1780.09
          -1037.06 12541.9 20217.1 21196.7 34628.2 32875.7 28885 23411.8 23544.9 27700.1 30717 31849.9
          35396 34777 33401.3 31738.7 31973.9 33290.9 34339.8 34816.3 35663.3 35443.2 34964.1 34438
          34561.3 35011.5 35375.6 35548.3 33221.2 29229.7 19280.3 3149.97 -24651.8 -93663.2 -24903.1 5691.87
          30532.9 20849 -8706.74 -52785.9 -112595 -349378 -103892 -21536.9 26211.9 1088.79 -158501 -350426
          -339753 -325936 -309624 -75868.1 29822.7 17770.1 -27429.9 -260043 -80757.2 -52377 -30605.4 -660.171
          33119.1 28509.5 15345.8 -14700.1 2178.37 10728.1 17695.8 23976.8 34791.9 33259.5 29396 23318.7
          25658.6 28312.2 30641.8 32316 35437.6 34997.6 33956.6 32595.8 32940.3 33702.5 34411 34862.1
          35629.6 35500.6 35209.1 34867 34925.1 35152 35369.3 35497.9 33758.9 30686.1 22714.1 7001.03
          -16263.5 -65018.4 -41304.4 2570.46 32049.6 25654.1 7109.78 -40591.3 -102595 -336564 -296344 -35337.8
          29719.9 17085.2 -32534.6 -310750 -319128 -350587 -83995.1 -11505 31488.7 23390.3 -4755.7 -134350
          -65670.5 -44478.2 -3332.98 15298 33696.6 30286.1 20752.9 132.407 6753.15 13253.8 22626.4 28082.6
          34930.6 33778.2 30871.6 26338.1 27200.4 29167.1 31693.6 33274.3 35416.5 35094.7 34326.1 33300.6
          33399.5 33938.9 34596.5 35007.9 35558.4 35469.3 35265.4 35016.9 35023.5 35173.4 35350.9 35459.6
          34209.7 31936.6 25774.3 12903.2 -8422.53 -13056.2 3094.31 18502.8 33221.7 29120.1 17421.3 -11249.3
          -79602.5 -92344.5 -35689.4 6439.28 32047.1 25426.3 4217.36 -65669.4 -321692 -318649 -40038.1 8616.5
          32738 27820.3 13885.6 -19161.4 -52028.7 -36178 6739.77 22402.6 34065.6 31677 25666.5 15350.8
          10579.9 15579.3 25438.1 30413.4 34953.4 34061.9 31949.1 28937.7 28192 29820 32420.8 33892.1
          35343.6 35076.4 34465.3 33684.5 33571.2 34048.7 34707.1 35088.2 35465.6 35387.7 35215.2 35011.2
          34993.6 35133 35306.1 35405.6 34265 32036.3 25218.7 7686.56 -31675.5 763.877 18635 26948
          33424.6 29482.8 16314.4 -29731.9 -284130 -52202 3536.54 21633 32371.1 26427.4 6648.23 -62618.6
          -318329 -253964 -18234.5 17982.8 32322.4 26471.6 8456.44 -40349 -56614.7 -25029.8 13046.3 26176
          33627.3 30605.5 22799.5 9083.07 9019.13 17697.2 27275.4 31700.5 34681.1 33513.7 30762.7 26996.9
          27489.5 30133.5 32842.7 34206.2 35182.6 34822.6 34015.6 33061.3 33251.5 34002.8 34724.1 35090.3
          35346.6 35239.2 35007.6 34759.4 34818.8 35034.4 35231.8 35331 34222.1 32203.6 26514.9 14532.9
          -1161.54 14213.5 25319.6 30473.1 33285.1 29426.1 17743.6 -12482.9 -63722.3 -7668.2 17811.3 27567.1
          31713.2 24258.5 -2835.29 -124785 -317478 -53787.2 7943.42 24939.4 30816.9 20621.4 -21982.7 -293528
          -68464.3 -3639.7 20262.7 28986.1 32698 27814.1 13389.3 -20443.8 4136.67 20420.5 28951.7 32527.3
          34250.6 32462 27992.4 21284.4 25717.9 30278.1 33107.2 34346.9 34980.6 34445.5 33216.6 31756
          32653.9 33868.3 34682.7 35042.5 35217.1 35061 34721.9 34371.9 34574.5 34906.7 35139.6 35242.8
        </DataArray>
        <DataArray type="Float32" Name="saturation" NumberOfComponents="1" format="ascii">
          0.30154 0.301515 0.301449 0.301341 0.301261 0.301329 0.301434 0.301495 0.301531 0.301489 0.301376 0.301181
          0.301022 0.301141 0.301335 0.301446 0.301522 0.301462 0.301299 0.301005 0.300735 0.300888 0.301194 0.301375
          0.301526 0.301477 0.301346 0.301118 0.300899 0.300905 0.301171 0.301355 0.301534 0.301501 0.301417 0.301288
          0.301197 0.301194 0.301328 0.30143 0.301543 0.301526 0.301484 0.301428 0.301404 0.301411 0.301462 0.301501
          0.301549 0.301542 0.301526 0.301507 0.301503 0.301509 0.301525 0.301537 0.301552 0.301549 0.301543 0.301536
          0.301537 0.30154 0.301545 0.301549 0.301401 0.301318 0.3011 0.300736 0.300455 0.300696 0.301053 0.301255
          0.301369 0.301226 0.300838 0.300153 0.299553 0.300004 0.300694 0.30108 0.301336 0.301126 0.300541 0.299445
          0.298332 0.298963 0.300136 0.300804 0.301349 0.301173 0.300705 0.299884 0.299037 0.298878 0.299962 0.30069
          0.301373 0.301244 0.300921 0.300432 0.300136 0.300065 0.300584 0.300977 0.301404 0.301333 0.301165 0.300945
          0.30089 0.300909 0.3011 0.30125 0.301428 0.301398 0.301331 0.301253 0.301253 0.301279 0.301338 0.301384
          0.301439 0.301427 0.301401 0.301375 0.30138 0.301394 0.301414 0.301428 0.301189 0.300918 0.300212 0.299027
          0.298071 0.298904 0.300071 0.300721 0.301078 0.300594 0.299296 0.296986 0.294815 0.296486 0.298827 0.300114
          0.300954 0.300214 0.298163 0.294212 0.289766 0.292427 0.296733 0.299087 0.300991 0.300367 0.298746 0.295928
          0.292906 0.291409 0.295744 0.298516 0.301055 0.300554 0.299304 0.297439 0.296708 0.296214 0.298136 0.299598
          0.301169 0.300879 0.30019 0.299299 0.299298 0.299368 0.300059 0.300612 0.301263 0.301139 0.300855 0.300531
          0.300605 0.300722 0.300941 0.301108 0.301308 0.301257 0.301147 0.301035 0.301079 0.301146 0.301219 0.301269
          0.300827 0.300107 0.298267 0.295209 0.292645 0.294945 0.297958 0.299621 0.300506 0.299174 0.295687 0.289518
          0.283342 0.288278 0.294557 0.297943 0.300113 0.297976 0.292122 0.280614 0.266791 0.275835 0.288395 0.294907
          0.300195 0.298383 0.293879 0.286319 0.27832 0.270518 0.284362 0.292721 0.300315 0.29868 0.294632 0.288481
          0.288313 0.286262 0.291737 0.296028 0.30066 0.299667 0.297302 0.294156 0.295155 0.295487 0.297421 0.299056
          0.300972 0.300534 0.299528 0.298355 0.298916 0.2994 0.300043 0.300542 0.301122 0.300944 0.300549 0.300141
          0.30038 0.300646 0.300874 0.301024 0.300266 0.298772 0.29504 0.288923 0.283814 0.288598 0.29459 0.297874
          0.299524 0.296637 0.289279 0.276278 0.263119 0.274119 0.287403 0.29431 0.29853 0.29358 0.280143 0.252617
          0.224616 0.243741 0.273245 0.287371 0.298646 0.294454 0.284612 0.268885 0.253883 0.229745 0.261019 0.280876
          0.29874 0.294428 0.283711 0.266034 0.273257 0.268107 0.278856 0.288985 0.299585 0.296866 0.290327 0.280664
          0.286804 0.288586 0.292272 0.296078 0.300413 0.299185 0.296314 0.292711 0.295264 0.296987 0.29837 0.299534
          0.300823 0.300318 0.299174 0.297928 0.29887 0.299744 0.300296 0.300652 0.299626 0.29729 0.291606 0.282619
          0.277894 0.282969 0.291252 0.296033 0.298326 0.293605 0.281858 0.261903 0.254225 0.262823 0.280629 0.290657
          0.296422 0.287725 0.264804 0.224922 0.223353 0.2251 0.257761 0.278973 0.296413 0.288749 0.271546 0.246099
          0.238523 0.23979 0.22611 0.263464 0.296307 0.287431 0.264609 0.225057 0.25469 0.264997 0.25734 0.279553
          0.29789 0.292142 0.277737 0.251555 0.27418 0.283872 0.285389 0.292544 0.299559 0.29694 0.290599 0.281419
          0.28939 0.294434 0.296387 0.298429 0.3004 0.299321 0.296791 0.293766 0.296402 0.2986 0.299633 0.300261
          0.299126 0.296472 0.290447 0.281418 0.275938 0.279341 0.288743 0.294491 0.297471 0.292186 0.280073 0.260899
          0.254213 0.267815 0.281908 0.290462 0.294983 0.285141 0.261676 0.224533 0.223117 0.243608 0.265659 0.281675
          0.294553 0.283794 0.258656 0.22245 0.220959 0.223851 0.240172 0.271605 0.29474 0.28355 0.257293 0.223254
          0.241591 0.256404 0.270481 0.284667 0.296635 0.288411 0.266845 0.227772 0.26226 0.279652 0.288318 0.294137
          0.298906 0.295146 0.285616 0.270282 0.284004 0.292521 0.296588 0.298677 0.300067 0.298534 0.294797 0.289882
          0.294276 0.297756 0.299459 0.300202 0.298353 0.295164 0.28879 0.280734 0.269968 0.260707 0.279057 0.289633
          0.296094 0.289883 0.277955 0.265957 0.251458 0.256277 0.275802 0.286404 0.292953 0.281715 0.259496 0.241846
          0.223136 0.224573 0.260235 0.278375 0.294098 0.284686 0.265738 0.239957 0.223027 0.225158 0.260282 0.280004
          0.295236 0.285809 0.262811 0.225088 0.234967 0.260451 0.279505 0.289497 0.297478 0.291901 0.278991 0.259549
          0.269855 0.283102 0.291766 0.296098 0.299315 0.296802 0.291021 0.2834 0.288509 0.29418 0.297639 0.299235
          0.300186 0.299145 0.296778 0.294066 0.296082 0.298374 0.299719 0.300295 0.297347 0.292875 0.283897 0.273727
          0.254839 0.224356 0.260387 0.280535 0.293935 0.284336 0.265002 0.254055 0.243333 0.241641 0.264566 0.275984
          0.288896 0.269068 0.226821 0.223076 0.222716 0.222676 0.252562 0.262287 0.293065 0.28224 0.260514 0.241808
          0.223335 0.248572 0.27005 0.278217 0.296409 0.290246 0.277213 0.25924 0.257497 0.273606 0.285343 0.290496
          0.298618 0.295512 0.288799 0.279967 0.281665 0.289027 0.294433 0.296941 0.299863 0.298567 0.295728 0.292342
          0.293616 0.296513 0.298596 0.299552 0.300372 0.299856 0.298729 0.297514 0.298118 0.299232 0.300006 0.300351
          0.297789 0.294102 0.28654 0.27508 0.253147 0.222419 0.253698 0.273931 0.295264 0.288327 0.275311 0.261594
          0.241454 0.221951 0.2483 0.259078 0.292012 0.279963 0.25695 0.237346 0.222821 0.236393 0.245986 0.227092
          0.294791 0.287094 0.272249 0.254275 0.247484 0.261864 0.269816 0.265027 0.297644 0.293604 0.285362 0.274885
          0.273394 0.281271 0.286647 0.287393 0.29936 0.297584 0.293803 0.289134 0.289242 0.292745 0.295496 0.296579
          0.300162 0.299514 0.298109 0.296471 0.296699 0.297998 0.299062 0.299555 0.300444 0.300211 0.299709 0.299163
          0.299291 0.299758 0.30014 0.300323 0.297929 0.294117 0.285948 0.275635 0.263073 0.245201 0.262981 0.277072
          0.295323 0.287126 0.269652 0.254233 0.241984 0.221754 0.243403 0.26425 0.291454 0.274513 0.235797 0.221704
          0.222221 0.22292 0.223794 0.248719 0.294661 0.284847 0.262063 0.226831 0.247698 0.254342 0.260951 0.27359
          0.297826 0.293465 0.283145 0.267008 0.275101 0.28011 0.284793 0.289592 0.299529 0.297967 0.294269 0.28906
          0.290985 0.293288 0.295425 0.297033 0.300205 0.299744 0.298671 0.297308 0.297649 0.298413 0.299136 0.299602
          0.300409 0.300272 0.299965 0.299608 0.299668 0.299905 0.300133 0.300269 0.29847 0.295467 0.288577 0.277836
          0.266355 0.251157 0.2575 0.275316 0.296773 0.290981 0.2779 0.257717 0.243623 0.222379 0.224548 0.259371
          0.294566 0.284358 0.260296 0.223732 0.223278 0.221696 0.247045 0.268389 0.296231 0.289117 0.271525 0.23881
          0.251003 0.256555 0.272228 0.283112 0.298407 0.295092 0.287053 0.274005 0.27769 0.281738 0.288508 0.293084
          0.299674 0.298489 0.295642 0.291562 0.292307 0.29406 0.296428 0.297982 0.300183 0.299845 0.299048 0.298008
          0.298107 0.298653 0.299327 0.299754 0.300333 0.300239 0.300024 0.299764 0.299771 0.299928 0.300114 0.300229
          0.298929 0.296663 0.291083 0.281508 0.269783 0.267711 0.275604 0.285377 0.297929 0.294017 0.284597 0.268503
          0.247935 0.245444 0.259257 0.277506 0.29677 0.290789 0.276231 0.251004 0.223142 0.223304 0.257886 0.278803
          0.297448 0.292851 0.282157 0.26518 0.254436 0.259099 0.277682 0.288331 0.298782 0.296412 0.290992 0.283149
          0.280016 0.283306 0.290799 0.295211 0.299698 0.298778 0.296675 0.293851 0.293181 0.294659 0.297135 0.298605
          0.300106 0.299826 0.299192 0.298394 0.29828 0.298764 0.299441 0.299838 0.300235 0.300153 0.299971 0.299758
          0.299739 0.299885 0.300067 0.300172 0.298986 0.29676 0.290616 0.278243 0.260586 0.27434 0.285473 0.292088
          0.298132 0.294348 0.283816 0.261253 0.225277 0.254389 0.275849 0.28773 0.297087 0.291639 0.277629 0.251731
          0.223321 0.22725 0.26555 0.285 0.297039 0.291676 0.278706 0.257791 0.253229 0.262934 0.281601 0.291424
          0.298337 0.295391 0.288645 0.279088 0.279049 0.284794 0.292372 0.296435 0.299415 0.298222 0.295539 0.29213
          0.29256 0.294949 0.297552 0.298925 0.299937 0.299561 0.298731 0.297769 0.297959 0.298718 0.299459 0.299841
          0.30011 0.299997 0.299754 0.299496 0.299557 0.299782 0.299989 0.300093 0.298942 0.296923 0.291714 0.282592
          0.27333 0.282377 0.2907 0.295267 0.297992 0.294296 0.284828 0.26796 0.251466 0.270134 0.284876 0.292628
          0.296447 0.289822 0.272477 0.240145 0.223366 0.253966 0.278397 0.290383 0.29559 0.286953 0.264078 0.224713
          0.250356 0.272075 0.286682 0.293895 0.297408 0.292846 0.281828 0.264674 0.276185 0.286801 0.293864 0.29724
          0.298971 0.297176 0.293004 0.28746 0.291035 0.295084 0.297815 0.29907 0.299726 0.299171 0.297924 0.296488
          0.297365 0.298581 0.299416 0.299791 0.299973 0.29981 0.299457 0.299095 0.299304 0.299649 0.299892 0.3
        </DataArray>
        <DataArray type="Float32" Name="process rank" NumberOfComponents="1" format="ascii">
          0 0 0 0 0 0 0 0 0 0 0 0
          0 0 0 0 0 0 0 0 0 0 0 0
          0 0 0 0 0 0 0 0 0 0 0 0
          0 0 0 0 0 0 0 0 0 0 0 0
          0 0 0 0 0 0 0 0 0 0 0 0
          0 0 0 0 0 0 0 0 0 0 0 0
          0 0 0 0 0 0 0 0 0 0 0 0
          0 0 0 0 0 0 0 0 0 0 0 0
          0 0 0 0 0 0 0 0 0 0 0 0
          0 0 0 0 0 0 0 0 0 0 0 0
          0 0 0 0 0 0 0 0 0 0 0 0
          0 0 0 0 0 0 0 0 0 0 0 0
          0 0 0 0 0 0 0 0 0 0 0 0
          0 0 0 0 0 0 0 0 0 0 0 0
          0 0 0 0 0 0 0 0 0 0 0 0
          0 0 0 0 0 0 0 0 0 0 0 0
          0 0 0 0 0 0 0 0 0 0 0 0
          0 0 0 0 0 0 0 0 0 0 0 0
          0 0 0 0 0 0 0 0 0 0 0 0
          0 0 0 0 0 0 0 0 0 0 0 0
          0 0 0 0 0 0 0 0 0 0 0 0
          0 0 0 0 0 0 0 0 0 0 0 0
          0 0 0 0 0 0 0 0 0 0 0 0
          0 0 0 0 0 0 0 0 0 0 0 0
          0 0 0 0 0 0 0 0 0 0 0 0
          0 0 0 0 0 0 0 0 0 0 0 0
          0 0 0 0 0 0 0 0 0 0 0 0
          0 0 0 0 0 0 0 0 0 0 0 0
          0 0 0 0 0 0 0 0 0 0 0 0
          0 0 0 0 0 0 0 0 0 0 0 0
          0 0 0 0 0 0 0 0 0 0 0 0
          0 0 0 0 0 0 0 0 0 0 0 0
          0 0 0 0 0 0 0 0 0 0 0 0
          0 0 0 0 0 0 0 0 0 0 0 0
          0 0 0 0 0 0 0 0 0 0 0 0
          0 0 0 0 0 0 0 0 0 0 0 0
          0 0 0 0 0 0 0 0 0 0 0 0
          0 0 0 0 0 0 0 0 0 0 0 0
          0 0 0 0 0 0 0 0 0 0 0 0
          0 0 0 0 0 0 0 0 0 0 0 0
          0 0 0 0 0 0 0 0 0 0 0 0
          0 0 0 0 0 0 0 0 0 0 0 0
          0 0 0 0 0 0 0 0 0 0 0 0
          0 0 0 0 0 0 0 0 0 0 0 0
          0 0 0 0 0 0 0 0 0 0 0 0
          0 0 0 0 0 0 0 0 0 0 0 0
          0 0 0 0 0 0 0 0 0 0 0 0
          0 0 0 0 0 0 0 0 0 0 0 0
          0 0 0 0 0 0 0 0 0 0 0 0
          0 0 0 0 0 0 0 0 0 0 0 0
          0 0 0 0 0 0 0 0 0 0 0 0
          0 0 0 0 0 0 0 0 0 0 0 0
          0 0 0 0 0 0 0 0 0 0 0 0
          0 0 0 0 0 0 0 0 0 0 0 0
          0 0 0 0 0 0 0 0 0 0 0 0
          0 0 0 0 0 0 0 0 0 0 0 0
          0 0 0 0 0 0 0 0 0 0 0 0
          0 0 0 0 0 0 0 0 0 0 0 0
          0 0 0 0 0 0 0 0 0 0 0 0
          0 0 0 0 0 0 0 0 0 0 0 0
          0 0 0 0 0 0 0 0 0 0 0 0
          0 0 0 0 0 0 0 0 0 0 0 0
          0 0 0 0 0 0 0 0 0 0 0 0
          0 0 0 0 0 0 0 0 0 0 0 0
          0 0 0 0 0 0 0 0 0 0 0 0
          0 0 0 0 0 0 0 0 0 0 0 0
          0 0 0 0 0 0 0 0 0 0 0 0
          0 0 0 0 0 0 0 0 0 0 0 0
          0 0 0 0 0 0 0 0 0 0 0 0
          0 0 0 0 0 0 0 0 0 0 0 0
          0 0 0 0 0 0 0 0 0 0 0 0
          0 0 0 0 0 0 0 0 0 0 0 0
          0 0 0 0 0 0 0 0 0 0 0 0
          0 0 0 0 0 0 0 0 0 0 0 0
          0 0 0 0 0 0 0 0 0 0 0 0
          0 0 0 0 0 0 0 0 0 0 0 0
          0 0 0 0 0 0 0 0 0 0 0 0
          0 0 0 0 0 0 0 0 0 0 0 0
          0 0 0 0 0 0 0 0 0 0 0 0
          0 0 0 0 0 0 0 0 0 0 0 0
        </DataArray>
      </CellData>
      <Points>
        <DataArray type="Float32" Name="Coordinates" NumberOfComponents="3" format="ascii">
          -0.04 -0.04 -0.15 -0.03 -0.04 -0.15 -0.04 -0.03 -0.15 -0.03 -0.03 -0.15
          -0.04 -0.04 -0.14 -0.03 -0.04 -0.14 -0.04 -0.03 -0.14 -0.03 -0.03 -0.14
          -0.02 -0.04 -0.15 -0.02 -0.03 -0.15 -0.02 -0.04 -0.14 -0.02 -0.03 -0.14
          -0.01 -0.04 -0.15 -0.01 -0.03 -0.15 -0.01 -0.04 -0.14 -0.01 -0.03 -0.14
          0 -0.04 -0.15 0 -0.03 -0.15 0 -0.04 -0.14 0 -0.03 -0.14
          0.01 -0.04 -0.15 0.01 -0.03 -0.15 0.01 -0.04 -0.14 0.01 -0.03 -0.14
          0.02 -0.04 -0.15 0.02 -0.03 -0.15 0.02 -0.04 -0.14 0.02 -0.03 -0.14
          0.03 -0.04 -0.15 0.03 -0.03 -0.15 0.03 -0.04 -0.14 0.03 -0.03 -0.14
          0.04 -0.04 -0.15 0.04 -0.03 -0.15 0.04 -0.04 -0.14 0.04 -0.03 -0.14
          -0.04 -0.02 -0.15 -0.03 -0.02 -0.15 -0.04 -0.02 -0.14 -0.03 -0.02 -0.14
          -0.02 -0.02 -0.15 -0.02 -0.02 -0.14 -0.01 -0.02 -0.15 -0.01 -0.02 -0.14
          0 -0.02 -0.15 0 -0.02 -0.14 0.01 -0.02 -0.15 0.01 -0.02 -0.14
          0.02 -0.02 -0.15 0.02 -0.02 -0.14 0.03 -0.02 -0.15 0.03 -0.02 -0.14
          0.04 -0.02 -0.15 0.04 -0.02 -0.14 -0.04 -0.01 -0.15 -0.03 -0.01 -0.15
          -0.04 -0.01 -0.14 -0.03 -0.01 -0.14 -0.02 -0.01 -0.15 -0.02 -0.01 -0.14
          -0.01 -0.01 -0.15 -0.01 -0.01 -0.14 0 -0.01 -0.15 0 -0.01 -0.14
          0.01 -0.01 -0.15 0.01 -0.01 -0.14 0.02 -0.01 -0.15 0.02 -0.01 -0.14
          0.03 -0.01 -0.15 0.03 -0.01 -0.14 0.04 -0.01 -0.15 0.04 -0.01 -0.14
          -0.04 0 -0.15 -0.03 0 -0.15 -0.04 0 -0.14 -0.03 0 -0.14
          -0.02 0 -0.15 -0.02 0 -0.14 -0.01 0 -0.15 -0.01 0 -0.14
          0 0 -0.15 0 0 -0.14 0.01 0 -0.15 0.01 0 -0.14
          0.02 0 -0.15 0.02 0 -0.14 0.03 0 -0.15 0.03 0 -0.14
          0.04 0 -0.15 0.04 0 -0.14 -0.04 0.01 -0.15 -0.03 0.01 -0.15
          -0.04 0.01 -0.14 -0.03 0.01 -0.14 -0.02 0.01 -0.15 -0.02 0.01 -0.14
          -0.01 0.01 -0.15 -0.01 0.01 -0.14 0 0.01 -0.15 0 0.01 -0.14
          0.01 0.01 -0.15 0.01 0.01 -0.14 0.02 0.01 -0.15 0.02 0.01 -0.14
          0.03 0.01 -0.15 0.03 0.01 -0.14 0.04 0.01 -0.15 0.04 0.01 -0.14
          -0.04 0.02 -0.15 -0.03 0.02 -0.15 -0.04 0.02 -0.14 -0.03 0.02 -0.14
          -0.02 0.02 -0.15 -0.02 0.02 -0.14 -0.01 0.02 -0.15 -0.01 0.02 -0.14
          0 0.02 -0.15 0 0.02 -0.14 0.01 0.02 -0.15 0.01 0.02 -0.14
          0.02 0.02 -0.15 0.02 0.02 -0.14 0.03 0.02 -0.15 0.03 0.02 -0.14
          0.04 0.02 -0.15 0.04 0.02 -0.14 -0.04 0.03 -0.15 -0.03 0.03 -0.15
          -0.04 0.03 -0.14 -0.03 0.03 -0.14 -0.02 0.03 -0.15 -0.02 0.03 -0.14
          -0.01 0.03 -0.15 -0.01 0.03 -0.14 0 0.03 -0.15 0 0.03 -0.14
          0.01 0.03 -0.15 0.01 0.03 -0.14 0.02 0.03 -0.15 0.02 0.03 -0.14
          0.03 0.03 -0.15 0.03 0.03 -0.14 0.04 0.03 -0.15 0.04 0.03 -0.14
          -0.04 0.04 -0.15 -0.03 0.04 -0.15 -0.04 0.04 -0.14 -0.03 0.04 -0.14
          -0.02 0.04 -0.15 -0.02 0.04 -0.14 -0.01 0.04 -0.15 -0.01 0.04 -0.14
          0 0.04 -0.15 0 0.04 -0.14 0.01 0.04 -0.15 0.01 0.04 -0.14
          0.02 0.04 -0.15 0.02 0.04 -0.14 0.03 0.04 -0.15 0.03 0.04 -0.14
          0.04 0.04 -0.15 0.04 0.04 -0.14 -0.04 -0.04 -0.13 -0.03 -0.04 -0.13
          -0.04 -0.03 -0.13 -0.03 -0.03 -0.13 -0.02 -0.04 -0.13 -0.02 -0.03 -0.13
          -0.01 -0.04 -0.13 -0.01 -0.03 -0.13 0 -0.04 -0.13 0 -0.03 -0.13
          0.01 -0.04 -0.13 0.01 -0.03 -0.13 0.02 -0.04 -0.13 0.02 -0.03 -0.13
          0.03 -0.04 -0.13 0.03 -0.03 -0.13 0.04 -0.04 -0.13 0.04 -0.03 -0.13
          -0.04 -0.02 -0.13 -0.03 -0.02 -0.13 -0.02 -0.02 -0.13 -0.01 -0.02 -0.13
          0 -0.02 -0.13 0.01 -0.02 -0.13 0.02 -0.02 -0.13 0.03 -0.02 -0.13
          0.04 -0.02 -0.13 -0.04 -0.01 -0.13 -0.03 -0.01 -0.13 -0.02 -0.01 -0.13
          -0.01 -0.01 -0.13 0 -0.01 -0.13 0.01 -0.01 -0.13 0.02 -0.01 -0.13
          0.03 -0.01 -0.13 0.04 -0.01 -0.13 -0.04 0 -0.13 -0.03 0 -0.13
          -0.02 0 -0.13 -0.01 0 -0.13 0 0 -0.13 0.01 0 -0.13
          0.02 0 -0.13 0.03 0 -0.13 0.04 0 -0.13 -0.04 0.01 -0.13
          -0.03 0.01 -0.13 -0.02 0.01 -0.13 -0.01 0.01 -0.13 0 0.01 -0.13
          0.01 0.01 -0.13 0.02 0.01 -0.13 0.03 0.01 -0.13 0.04 0.01 -0.13
          -0.04 0.02 -0.13 -0.03 0.02 -0.13 -0.02 0.02 -0.13 -0.01 0.02 -0.13
          0 0.02 -0.13 0.01 0.02 -0.13 0.02 0.02 -0.13 0.03 0.02 -0.13
          0.04 0.02 -0.13 -0.04 0.03 -0.13 -0.03 0.03 -0.13 -0.02 0.03 -0.13
          -0.01 0.03 -0.13 0 0.03 -0.13 0.01 0.03 -0.13 0.02 0.03 -0.13
          0.03 0.03 -0.13 0.04 0.03 -0.13 -0.04 0.04 -0.13 -0.03 0.04 -0.13
          -0.02 0.04 -0.13 -0.01 0.04 -0.13 0 0.04 -0.13 0.01 0.04 -0.13
          0.02 0.04 -0.13 0.03 0.04 -0.13 0.04 0.04 -0.13 -0.04 -0.04 -0.12
          -0.03 -0.04 -0.12 -0.04 -0.03 -0.12 -0.03 -0.03 -0.12 -0.02 -0.04 -0.12
          -0.02 -0.03 -0.12 -0.01 -0.04 -0.12 -0.01 -0.03 -0.12 0 -0.04 -0.12
          0 -0.03 -0.12 0.01 -0.04 -0.12 0.01 -0.03 -0.12 0.02 -0.04 -0.12
          0.02 -0.03 -0.12 0.03 -0.04 -0.12 0.03 -0.03 -0.12 0.04 -0.04 -0.12
          0.04 -0.03 -0.12 -0.04 -0.02 -0.12 -0.03 -0.02 -0.12 -0.02 -0.02 -0.12
          -0.01 -0.02 -0.12 0 -0.02 -0.12 0.01 -0.02 -0.12 0.02 -0.02 -0.12
          0.03 -0.02 -0.12 0.04 -0.02 -0.12 -0.04 -0.01 -0.12 -0.03 -0.01 -0.12
          -0.02 -0.01 -0.12 -0.01 -0.01 -0.12 0 -0.01 -0.12 0.01 -0.01 -0.12
          0.02 -0.01 -0.12 0.03 -0.01 -0.12 0.04 -0.01 -0.12 -0.04 0 -0.12
          -0.03 0 -0.12 -0.02 0 -0.12 -0.01 0 -0.12 0 0 -0.12
          0.01 0 -0.12 0.02 0 -0.12 0.03 0 -0.12 0.04 0 -0.12
          -0.04 0.01 -0.12 -0.03 0.01 -0.12 -0.02 0.01 -0.12 -0.01 0.01 -0.12
          0 0.01 -0.12 0.01 0.01 -0.12 0.02 0.01 -0.12 0.03 0.01 -0.12
          0.04 0.01 -0.12 -0.04 0.02 -0.12 -0.03 0.02 -0.12 -0.02 0.02 -0.12
          -0.01 0.02 -0.12 0 0.02 -0.12 0.01 0.02 -0.12 0.02 0.02 -0.12
          0.03 0.02 -0.12 0.04 0.02 -0.12 -0.04 0.03 -0.12 -0.03 0.03 -0.12
          -0.02 0.03 -0.12 -0.01 0.03 -0.12 0 0.03 -0.12 0.01 0.03 -0.12
          0.02 0.03 -0.12 0.03 0.03 -0.12 0.04 0.03 -0.12 -0.04 0.04 -0.12
          -0.03 0.04 -0.12 -0.02 0.04 -0.12 -0.01 0.04 -0.12 0 0.04 -0.12
          0.01 0.04 -0.12 0.02 0.04 -0.12 0.03 0.04 -0.12 0.04 0.04 -0.12
          -0.04 -0.04 -0.11 -0.03 -0.04 -0.11 -0.04 -0.03 -0.11 -0.03 -0.03 -0.11
          -0.02 -0.04 -0.11 -0.02 -0.03 -0.11 -0.01 -0.04 -0.11 -0.01 -0.03 -0.11
          0 -0.04 -0.11 0 -0.03 -0.11 0.01 -0.04 -0.11 0.01 -0.03 -0.11
          0.02 -0.04 -0.11 0.02 -0.03 -0.11 0.03 -0.04 -0.11 0.03 -0.03 -0.11
          0.04 -0.04 -0.11 0.04 -0.03 -0.11 -0.04 -0.02 -0.11 -0.03 -0.02 -0.11
          -0.02 -0.02 -0.11 -0.01 -0.02 -0.11 0 -0.02 -0.11 0.01 -0.02 -0.11
          0.02 -0.02 -0.11 0.03 -0.02 -0.11 0.04 -0.02 -0.11 -0.04 -0.01 -0.11
          -0.03 -0.01 -0.11 -0.02 -0.01 -0.11 -0.01 -0.01 -0.11 0 -0.01 -0.11
          0.01 -0.01 -0.11 0.02 -0.01 -0.11 0.03 -0.01 -0.11 0.04 -0.01 -0.11
          -0.04 0 -0.11 -0.03 0 -0.11 -0.02 0 -0.11 -0.01 0 -0.11
          0 0 -0.11 0.01 0 -0.11 0.02 0 -0.11 0.03 0 -0.11
          0.04 0 -0.11 -0.04 0.01 -0.11 -0.03 0.01 -0.11 -0.02 0.01 -0.11
          -0.01 0.01 -0.11 0 0.01 -0.11 0.01 0.01 -0.11 0.02 0.01 -0.11
          0.03 0.01 -0.11 0.04 0.01 -0.11 -0.04 0.02 -0.11 -0.03 0.02 -0.11
          -0.02 0.02 -0.11 -0.01 0.02 -0.11 0 0.02 -0.11 0.01 0.02 -0.11
          0.02 0.02 -0.11 0.03 0.02 -0.11 0.04 0.02 -0.11 -0.04 0.03 -0.11
          -0.03 0.03 -0.11 -0.02 0.03 -0.11 -0.01 0.03 -0.11 0 0.03 -0.11
          0.01 0.03 -0.11 0.02 0.03 -0.11 0.03 0.03 -0.11 0.04 0.03 -0.11
          -0.04 0.04 -0.11 -0.03 0.04 -0.11 -0.02 0.04 -0.11 -0.01 0.04 -0.11
          0 0.04 -0.11 0.01 0.04 -0.11 0.02 0.04 -0.11 0.03 0.04 -0.11
          0.04 0.04 -0.11 -0.04 -0.04 -0.1 -0.03 -0.04 -0.1 -0.04 -0.03 -0.1
          -0.03 -0.03 -0.1 -0.02 -0.04 -0.1 -0.02 -0.03 -0.1 -0.01 -0.04 -0.1
          -0.01 -0.03 -0.1 0 -0.04 -0.1 0 -0.03 -0.1 0.01 -0.04 -0.1
          0.01 -0.03 -0.1 0.02 -0.04 -0.1 0.02 -0.03 -0.1 0.03 -0.04 -0.1
          0.03 -0.03 -0.1 0.04 -0.04 -0.1 0.04 -0.03 -0.1 -0.04 -0.02 -0.1
          -0.03 -0.02 -0.1 -0.02 -0.02 -0.1 -0.01 -0.02 -0.1 0 -0.02 -0.1
          0.01 -0.02 -0.1 0.02 -0.02 -0.1 0.03 -0.02 -0.1 0.04 -0.02 -0.1
          -0.04 -0.01 -0.1 -0.03 -0.01 -0.1 -0.02 -0.01 -0.1 -0.01 -0.01 -0.1
          0 -0.01 -0.1 0.01 -0.01 -0.1 0.02 -0.01 -0.1 0.03 -0.01 -0.1
          0.04 -0.01 -0.1 -0.04 0 -0.1 -0.03 0 -0.1 -0.02 0 -0.1
          -0.01 0 -0.1 0 0 -0.1 0.01 0 -0.1 0.02 0 -0.1
          0.03 0 -0.1 0.04 0 -0.1 -0.04 0.01 -0.1 -0.03 0.01 -0.1
          -0.02 0.01 -0.1 -0.01 0.01 -0.1 0 0.01 -0.1 0.01 0.01 -0.1
          0.02 0.01 -0.1 0.03 0.01 -0.1 0.04 0.01 -0.1 -0.04 0.02 -0.1
          -0.03 0.02 -0.1 -0.02 0.02 -0.1 -0.01 0.02 -0.1 0 0.02 -0.1
          0.01 0.02 -0.1 0.02 0.02 -0.1 0.03 0.02 -0.1 0.04 0.02 -0.1
          -0.04 0.03 -0.1 -0.03 0.03 -0.1 -0.02 0.03 -0.1 -0.01 0.03 -0.1
          0 0.03 -0.1 0.01 0.03 -0.1 0.02 0.03 -0.1 0.03 0.03 -0.1