<?xml version="1.0"?>
<VTKFile type="UnstructuredGrid" version="0.1" byte_order="LittleEndian">
  <UnstructuredGrid>
    <Piece NumberOfCells="960" NumberOfPoints="1296">
      <CellData Scalars="p (Pa)">
        <DataArray type="Float32" Name="p (Pa)" NumberOfComponents="1" format="ascii">
          -880349 -880414 -880581 -880847 -881030 -880912 -880656 -880491 -880375 -880489 -880791 -881280
          -881638 -881446 -880973 -880660 -880403 -880571 -881017 -881761 -882350 -882136 -881413 -880909
          -880396 -880544 -880926 -881546 -882071 -882068 -881467 -880978 -880376 -880481 -880736 -881103
          -881352 -881358 -881041 -880756 -880353 -880415 -880555 -880727 -880792 -880765 -880634 -880515
          -880332 -880361 -880423 -880489 -880494 -880469 -880422 -880383 -880322 -880335 -880361 -880386
          -880382 -880367 -880349 -880336 -880537 -880769 -881374 -882338 -883000 -882562 -881634 -881042
          -880634 -881055 -882176 -884033 -885409 -884645 -882841 -881677 -880743 -881378 -883099 -886069
          -888488 -887556 -884616 -882651 -880723 -881288 -882757 -885168 -887230 -887400 -884943 -882979
          -880659 -881080 -882098 -883548 -884413 -884472 -883247 -882126 -880572 -880831 -881417 -882124
          -882283 -882147 -881645 -881186 -880491 -880614 -880878 -881154 -881133 -881011 -880828 -880677
          -880449 -880503 -880616 -880721 -880689 -880618 -880548 -880498 -880944 -881752 -883869 -887280
          -889627 -888018 -884734 -882679 -881296 -882808 -886902 -893905 -899220 -896081 -889230 -884989
          -881712 -884072 -890686 -902864 -913364 -908785 -896395 -888737 -881667 -883792 -889376 -898728
          -906879 -908858 -898317 -890294 -881477 -883144 -887228 -893034 -895733 -896147 -891456 -887033
          -881160 -882229 -884697 -887672 -887758 -887050 -885185 -883432 -880837 -881350 -882473 -883644
          -883354 -882763 -882070 -881502 -880662 -880890 -881368 -881812 -881616 -881291 -881019 -880832
          -881812 -884056 -889975 -899671 -906331 -901497 -892198 -886533 -882844 -887208 -899352 -921377
          -938771 -927420 -905740 -893251 -884140 -891311 -912627 -957772 -1.00095e+06 -977963 -930171 -905046
          -884119 -890658 -908214 -938934 -966268 -983318 -940301 -911386 -883712 -889230 -903201 -923916
          -928496 -930692 -915969 -900993 -882771 -886475 -895386 -906771 -903976 -900675 -895142 -889570
          -881706 -883491 -887516 -891869 -889925 -887492 -885361 -883606 -881118 -881906 -883586 -885174
          -884254 -883017 -882147 -881571 -883260 -887960 -900391 -921099 -934821 -924025 -904497 -892903
          -885578 -895141 -922674 -977610 -1.02171e+06 -988620 -935150 -907486 -888709 -905545 -960829 -1.12121e+06
          -1.29204e+06 -1.17784e+06 -1.00233e+06 -936152 -889014 -904770 -948666 -1.03206e+06 -1.10253e+06 -1.23286e+06 -1.05139e+06 -957796
          -888539 -903241 -943658 -1.01475e+06 -1.00045e+06 -1.00705e+06 -975667 -930923 -886352 -896670 -923834 -966270
          -941768 -928025 -916348 -901878 -883582 -888490 -900209 -914370 -905114 -896914 -891865 -887593
          -882034 -884155 -888833 -893505 -890189 -886449 -884260 -882883 -884901 -892019 -910244 -939163
          -953566 -941468 -915843 -899422 -888728 -903532 -945169 -1.02529e+06 -1.05516e+06 -1.02163e+06 -958455 -920470
          -894216 -921619 -1.01203e+06 -1.27864e+06 -1.30766e+06 -1.2509e+06 -1.06899e+06 -967235 -895534 -923693 -1.00479e+06 -1.16604e+06
          -1.19037e+06 -1.21186e+06 -1.28008e+06 -1.02305e+06 -895430 -925107 -1.02076e+06 -1.28484e+06 -1.09965e+06 -1.05761e+06 -1.10391e+06 -971375
          -891595 -913207 -980377 -1.15283e+06 -1.00627e+06 -956866 -945532 -915902 -886262 -896164 -922015 -961079
          -929265 -908210 -899420 -891730 -883298 -887433 -896982 -907539 -899034 -890760 -886606 -884193
          -886503 -895236 -916176 -947564 -968303 -962084 -928609 -906687 -891624 -909462 -955158 -1.03202e+06
          -1.06598e+06 -1.02644e+06 -964098 -925604 -898906 -931958 -1.02942e+06 -1.26418e+06 -1.31176e+06 -1.18518e+06 -1.05081e+06 -965413
          -900483 -937032 -1.04552e+06 -1.29698e+06 -1.31832e+06 -1.30012e+06 -1.19239e+06 -1.00289e+06 -899330 -935663 -1.04805e+06 -1.30451e+06
          -1.16302e+06 -1.08096e+06 -1.02331e+06 -952931 -894335 -921777 -1.01215e+06 -1.27834e+06 -1.04755e+06 -968375 -934686 -910587
          -887615 -899999 -933553 -989248 -943107 -912909 -898488 -890639 -883943 -889035 -901028 -915000
          -903690 -892641 -886795 -884054 -888878 -900019 -924837 -959520 -1.00218e+06 -1.035e+06 -964866 -925150
          -895915 -918533 -970248 -1.03102e+06 -1.08699e+06 -1.07409e+06 -987327 -941108 -905225 -947141 -1.05762e+06 -1.1814e+06
          -1.31478e+06 -1.25749e+06 -1.04837e+06 -971150 -903016 -940228 -1.0377e+06 -1.20475e+06 -1.32663e+06 -1.26473e+06 -1.05907e+06 -968604
          -898475 -930936 -1.03004e+06 -1.29038e+06 -1.20191e+06 -1.06073e+06 -975033 -930596 -891948 -911829 -966408 -1.06343e+06
          -1.01038e+06 -953836 -919204 -901494 -886160 -894929 -916318 -944173 -927224 -906619 -893879 -887766
          -883281 -886909 -895010 -903501 -897913 -890183 -885370 -883204 -891606 -906622 -940344 -985529
          -1.07268e+06 -1.27224e+06 -1.04179e+06 -960551 -901455 -934704 -1.01701e+06 -1.07189e+06 -1.13227e+06 -1.17354e+06 -1.0422e+06 -983598
          -914859 -987719 -1.27344e+06 -1.29906e+06 -1.33149e+06 -1.29846e+06 -1.08175e+06 -1.0309e+06 -905338 -946256 -1.05147e+06 -1.15877e+06
          -1.29825e+06 -1.14354e+06 -1.01828e+06 -972017 -895350 -918349 -975162 -1.05952e+06 -1.07082e+06 -1.00247e+06 -947460 -922379
          -888284 -899746 -926868 -962564 -955971 -928500 -906666 -896155 -884107 -888787 -899287 -911139
          -907093 -896993 -889312 -885668 -882342 -884214 -888212 -892176 -890358 -886535 -883760 -882492
          -890966 -904860 -936719 -988330 -1.09001e+06 -1.29227e+06 -1.07718e+06 -990526 -899260 -926447 -988140 -1.05943e+06
          -1.16318e+06 -1.30089e+06 -1.11473e+06 -1.05435e+06 -909158 -957521 -1.08425e+06 -1.19692e+06 -1.30958e+06 -1.23855e+06 -1.15037e+06 -1.24908e+06
          -901587 -933474 -1.00871e+06 -1.1029e+06 -1.13937e+06 -1.07623e+06 -1.02091e+06 -1.01521e+06 -891838 -907777 -943760 -988563
          -995604 -965564 -937997 -927112 -885703 -892363 -906995 -923962 -923902 -911603 -900374 -895102
          -882813 -885178 -890242 -895649 -894917 -890529 -886700 -884856 -881789 -882642 -884421 -886170
          -885713 -884116 -882802 -882179 -890144 -903638 -935546 -983049 -1.05334e+06 -1.14025e+06 -1.05877e+06 -989200
          -898085 -926448 -998940 -1.07646e+06 -1.16431e+06 -1.30708e+06 -1.17075e+06 -1.05329e+06 -908318 -965945 -1.18593e+06 -1.29913e+06
          -1.32148e+06 -1.32105e+06 -1.29398e+06 -1.13872e+06 -900677 -935977 -1.03869e+06 -1.24914e+06 -1.13071e+06 -1.08221e+06 -1.04172e+06 -995840
          -890620 -905845 -943403 -997400 -979636 -957169 -936918 -922109 -884751 -890055 -902060 -916360
          -913613 -905597 -898046 -893358 -882354 -883921 -887303 -890947 -890393 -887938 -885631 -884310
          -881624 -882097 -883086 -884080 -883907 -883134 -882430 -882049 -888009 -898771 -925775 -971804
          -1.02937e+06 -1.08734e+06 -1.05405e+06 -979048 -893495 -914329 -968955 -1.06325e+06 -1.15421e+06 -1.2999e+06 -1.27358e+06 -1.0408e+06
          -899961 -935912 -1.04609e+06 -1.28867e+06 -1.31831e+06 -1.30322e+06 -1.14461e+06 -1.02697e+06 -895737 -922192 -999650 -1.18587e+06
          -1.10881e+06 -1.06535e+06 -1.00101e+06 -956031 -888482 -900502 -930998 -978351 -967167 -948288 -925308 -909902
          -883979 -888108 -897718 -909800 -908165 -901868 -894660 -890042 -882148 -883302 -885856 -888733
          -888454 -886689 -884751 -883560 -881609 -881929 -882611 -883328 -883258 -882761 -882237 -881928
          -886137 -894421 -916707 -958364 -1.00889e+06 -1.01495e+06 -978676 -938815 -889566 -904214 -944449 -1.02367e+06
          -1.1324e+06 -1.13118e+06 -1.04741e+06 -966451 -893293 -915407 -978632 -1.11214e+06 -1.30035e+06 -1.28742e+06 -1.05488e+06 -965118
          -891308 -908970 -956362 -1.04026e+06 -1.07672e+06 -1.04652e+06 -968990 -928065 -886688 -895465 -917038 -947982
          -954459 -939811 -914869 -900122 -883478 -886667 -894043 -903284 -904290 -899062 -891717 -887287
          -882086 -883005 -885042 -887380 -887482 -885976 -884088 -882964 -881663 -881920 -882472 -883063
          -883055 -882630 -882142 -881857 -885673 -893614 -916352 -962745 -1.02398e+06 -983397 -938637 -912143
          -888664 -902609 -944163 -1.04222e+06 -1.26251e+06 -1.08428e+06 -976569 -926950 -892120 -912872 -974564 -1.11293e+06
          -1.30743e+06 -1.24388e+06 -1.00668e+06 -932992 -891484 -910356 -963705 -1.06412e+06 -1.08148e+06 -1.02824e+06 -948512 -912201
          -887241 -897133 -922085 -958390 -957483 -934851 -908115 -894354 -883863 -887574 -896217 -906815
          -905699 -898061 -889959 -885684 -882296 -883392 -885809 -888461 -888033 -885892 -883769 -882656
          -881800 -882113 -882776 -883446 -883301 -882708 -882149 -881861 -885912 -894062 -916510 -956619
          -987219 -954230 -918522 -899722 -889436 -904916 -950082 -1.0414e+06 -1.10707e+06 -1.01487e+06 -942225 -909064
          -894293 -921052 -1.00888e+06 -1.2499e+06 -1.30047e+06 -1.09012e+06 -963120 -915027 -894798 -923034 -1.01924e+06 -1.29712e+06
          -1.12151e+06 -1.00332e+06 -932909 -903464 -889316 -903653 -943266 -1.01128e+06 -974003 -932282 -903968 -891374
          -884772 -889998 -902635 -918768 -910932 -898354 -889141 -884946 -882650 -884168 -887554 -891197
          -889515 -886211 -883712 -882570 -881976 -882406 -883314 -884189 -883781 -882899 -882227 -881921
        </DataArray>
        <DataArray type="Float32" Name="saturation" NumberOfComponents="1" format="ascii">
          0.722979 0.722976 0.722968 0.722955 0.722946 0.722952 0.722964 0.722972 0.722977 0.722972 0.722958 0.722934
          0.722917 0.722926 0.722949 0.722964 0.722976 0.722968 0.722947 0.722911 0.722883 0.722893 0.722928 0.722952
          0.722976 0.722969 0.722951 0.722921 0.722896 0.722896 0.722925 0.722949 0.722977 0.722972 0.72296 0.722943
          0.722931 0.72293 0.722946 0.722959 0.722979 0.722976 0.722969 0.722961 0.722957 0.722959 0.722965 0.722971
          0.722979 0.722978 0.722975 0.722972 0.722972 0.722973 0.722975 0.722977 0.72298 0.722979 0.722978 0.722977
          0.722977 0.722978 0.722979 0.722979 0.72297 0.722959 0.72293 0.722883 0.722852 0.722873 0.722917 0.722946
          0.722965 0.722945 0.722891 0.722802 0.722737 0.722773 0.722859 0.722915 0.72296 0.722929 0.722847 0.722705
          0.72259 0.722635 0.722775 0.722868 0.722961 0.722934 0.722863 0.722748 0.72265 0.722642 0.722759 0.722853
          0.722964 0.722944 0.722895 0.722826 0.722784 0.722781 0.72284 0.722894 0.722968 0.722956 0.722928 0.722894
          0.722886 0.722893 0.722917 0.722939 0.722972 0.722966 0.722953 0.72294 0.722941 0.722947 0.722956 0.722963
          0.722974 0.722971 0.722966 0.722961 0.722962 0.722966 0.722969 0.722972 0.72295 0.722911 0.72281 0.722648
          0.722536 0.722613 0.722769 0.722867 0.722933 0.722861 0.722666 0.722334 0.722083 0.722231 0.722555 0.722757
          0.722913 0.722801 0.722486 0.721913 0.721424 0.721637 0.722216 0.722578 0.722916 0.722814 0.722548 0.722106
          0.721725 0.721633 0.722126 0.722505 0.722925 0.722845 0.72265 0.722375 0.722247 0.722228 0.722449 0.722659
          0.72294 0.722889 0.722771 0.722629 0.722625 0.722659 0.722748 0.722831 0.722955 0.722931 0.722877 0.722821
          0.722835 0.722863 0.722896 0.722923 0.722964 0.722953 0.72293 0.722909 0.722918 0.722934 0.722947 0.722956
          0.722909 0.722801 0.72252 0.722062 0.721751 0.721977 0.722414 0.722683 0.722859 0.722651 0.722077 0.721055
          0.720265 0.720779 0.721778 0.722365 0.722797 0.722456 0.721458 0.719419 0.717555 0.718537 0.720654 0.721811
          0.722798 0.722487 0.721663 0.720258 0.719045 0.718306 0.720197 0.721516 0.722818 0.722555 0.721897 0.720939
          0.72073 0.72063 0.721304 0.722 0.722863 0.722686 0.722264 0.72173 0.721861 0.722015 0.722275 0.722539
          0.722914 0.722828 0.722636 0.72243 0.722522 0.722638 0.722739 0.722823 0.722942 0.722904 0.722824 0.722748
          0.722792 0.722851 0.722893 0.72292 0.722839 0.722615 0.722028 0.721068 0.720443 0.720934 0.721836 0.722381
          0.722729 0.722275 0.720996 0.718552 0.716687 0.718079 0.720429 0.721697 0.72258 0.721787 0.719284 0.712758
          0.706766 0.710675 0.717497 0.720383 0.722565 0.721824 0.719822 0.716261 0.713468 0.708746 0.715476 0.719418
          0.722588 0.721895 0.720046 0.716976 0.717576 0.717298 0.718636 0.72062 0.722692 0.722203 0.720943 0.719045
          0.720131 0.720752 0.721287 0.721959 0.722824 0.72259 0.722037 0.721378 0.721807 0.722192 0.72243 0.722633
          0.722898 0.722797 0.722574 0.722353 0.72251 0.722687 0.722792 0.722857 0.722761 0.722423 0.721569 0.720248
          0.719605 0.720144 0.72131 0.722074 0.722579 0.721881 0.719978 0.716539 0.715325 0.71669 0.719389 0.721097
          0.722319 0.721044 0.71709 0.707206 0.706259 0.708132 0.714774 0.719003 0.722257 0.720949 0.717393 0.711101
          0.710228 0.709472 0.707159 0.716631 0.722262 0.720885 0.716726 0.707002 0.713579 0.715227 0.713415 0.718823
          0.722443 0.721432 0.718433 0.711582 0.717331 0.719459 0.719962 0.721307 0.722696 0.722227 0.721026 0.719273
          0.720695 0.721663 0.722074 0.722436 0.722838 0.72264 0.722189 0.721694 0.722092 0.722482 0.72268 0.722795
          0.722685 0.722271 0.721295 0.719871 0.718956 0.719229 0.720725 0.721734 0.722441 0.721605 0.719534 0.716262
          0.714894 0.716492 0.71914 0.720862 0.722098 0.720573 0.716369 0.707686 0.706127 0.710413 0.7155 0.719083
          0.722024 0.720344 0.715713 0.706605 0.705916 0.706503 0.710156 0.717473 0.722078 0.720405 0.715611 0.706361
          0.71121 0.714304 0.716621 0.719633 0.722313 0.721037 0.717084 0.707216 0.715631 0.718953 0.72045 0.721553
          0.722632 0.722047 0.720501 0.718052 0.720071 0.721445 0.722118 0.722488 0.722807 0.722564 0.721999 0.721349
          0.721874 0.722393 0.722671 0.722801 0.722572 0.722046 0.720897 0.719342 0.717503 0.716141 0.719107 0.720883
          0.722239 0.721186 0.718872 0.716304 0.714068 0.714573 0.718134 0.72016 0.721802 0.71989 0.715227 0.710548
          0.70603 0.707911 0.715598 0.718832 0.721905 0.7202 0.71603 0.70972 0.705651 0.707668 0.715169 0.718943
          0.722118 0.720619 0.716344 0.70682 0.70982 0.715102 0.718664 0.720635 0.722426 0.721495 0.719039 0.714995
          0.717159 0.719593 0.721155 0.721977 0.722701 0.722285 0.721288 0.720023 0.720788 0.721737 0.722335 0.722625
          0.722838 0.722665 0.722282 0.721883 0.722145 0.72251 0.722739 0.722842 0.722442 0.721737 0.720195 0.718211
          0.714629 0.707418 0.715864 0.719296 0.721979 0.720449 0.716882 0.71466 0.712343 0.71083 0.715847 0.718294
          0.721355 0.718117 0.707378 0.706537 0.705497 0.706557 0.714273 0.716309 0.721797 0.71993 0.715473 0.711365
          0.706564 0.711924 0.716829 0.718795 0.722265 0.721194 0.718658 0.715151 0.714702 0.717491 0.719876 0.721009
          0.7226 0.722059 0.720804 0.719208 0.719498 0.72073 0.721735 0.722228 0.722799 0.722576 0.72208 0.721527
          0.721715 0.722188 0.722551 0.722724 0.722883 0.722794 0.722603 0.722415 0.722501 0.722683 0.722815 0.722876
          0.722473 0.721819 0.720358 0.718091 0.713951 0.706759 0.714452 0.717997 0.722081 0.720824 0.718099 0.715154
          0.711204 0.706478 0.713003 0.715358 0.721619 0.71943 0.714175 0.709996 0.706197 0.708552 0.711673 0.708194
          0.721972 0.720504 0.717228 0.713454 0.712078 0.714489 0.71672 0.716957 0.722431 0.721683 0.720041 0.718081
          0.717781 0.719076 0.7203 0.720793 0.722723 0.722407 0.72172 0.720937 0.72094 0.721506 0.722029 0.722277
          0.722861 0.722748 0.722507 0.722251 0.722286 0.722493 0.722675 0.722763 0.72291 0.722869 0.722784 0.722701
          0.722722 0.722799 0.722861 0.722891 0.722512 0.721876 0.720411 0.718318 0.715398 0.712046 0.71518 0.718054
          0.722137 0.720824 0.71764 0.71448 0.711164 0.706278 0.71093 0.7154 0.721658 0.71906 0.710386 0.706535
          0.705815 0.705829 0.706703 0.712103 0.722015 0.720391 0.71599 0.708192 0.712401 0.714255 0.715867 0.717771
          0.722489 0.721773 0.720057 0.717705 0.718465 0.719445 0.720349 0.721022 0.722768 0.722516 0.72195 0.721286
          0.721413 0.721785 0.722139 0.722359 0.722883 0.722808 0.722647 0.722474 0.7225 0.722616 0.722726 0.722789
          0.722918 0.722895 0.722848 0.7228 0.722808 0.722845 0.722879 0.722897 0.722613 0.722104 0.720854 0.718804
          0.716371 0.714055 0.71537 0.71849 0.722353 0.72138 0.718928 0.715002 0.711532 0.70651 0.707374 0.715904
          0.722049 0.720394 0.71569 0.706876 0.705917 0.706402 0.711885 0.71647 0.722247 0.721018 0.71761 0.710388
          0.713228 0.714919 0.717552 0.719496 0.722591 0.722023 0.720617 0.71852 0.719006 0.719839 0.720876 0.721585
          0.722805 0.722608 0.722154 0.721589 0.721665 0.721959 0.722298 0.722516 0.722893 0.722837 0.722715 0.722579
          0.722592 0.722676 0.722768 0.722825 0.722918 0.722903 0.72287 0.722836 0.722839 0.722863 0.722888 0.722903
          0.722702 0.722309 0.72127 0.719393 0.717221 0.716968 0.718506 0.720263 0.722539 0.72185 0.720011 0.716606
          0.712338 0.712384 0.715636 0.719037 0.722363 0.72133 0.718508 0.713101 0.706495 0.706917 0.715336 0.719096
          0.722456 0.721628 0.719481 0.715926 0.71447 0.715673 0.718927 0.72075 0.722676 0.72226 0.721255 0.719853
          0.719565 0.720219 0.721355 0.722041 0.722829 0.722677 0.722327 0.721893 0.721846 0.722091 0.722437 0.722647
          0.722896 0.722852 0.722754 0.722643 0.722638 0.72271 0.7228 0.722854 0.722916 0.722903 0.722877 0.722849
          0.722849 0.722869 0.722893 0.722906 0.722724 0.722347 0.721286 0.7192 0.716593 0.718303 0.720271 0.721481
          0.722582 0.721924 0.720023 0.715847 0.707742 0.714174 0.718597 0.720801 0.722418 0.721447 0.718684 0.713071
          0.706266 0.70837 0.717314 0.720526 0.722448 0.721564 0.719158 0.714967 0.714283 0.716418 0.719829 0.721478
          0.72265 0.722181 0.721023 0.719391 0.719431 0.720442 0.721668 0.722312 0.722811 0.722634 0.722225 0.721728
          0.72178 0.722138 0.72252 0.722724 0.722885 0.722833 0.722718 0.722592 0.722612 0.722714 0.722815 0.722868
          0.722909 0.722894 0.722862 0.72283 0.722837 0.722866 0.722893 0.722906 0.722713 0.722326 0.721279 0.71947
          0.718139 0.719575 0.721186 0.72206 0.722545 0.721817 0.719759 0.71588 0.713294 0.716971 0.72011 0.721624
          0.722315 0.72107 0.717221 0.708166 0.706492 0.713947 0.719183 0.721347 0.722292 0.720979 0.716789 0.7066
          0.712747 0.717455 0.72053 0.721885 0.722551 0.721876 0.720064 0.717121 0.718708 0.720558 0.721861 0.722453
          0.722767 0.722519 0.721923 0.721175 0.721537 0.722124 0.722559 0.722759 0.722869 0.722796 0.722635 0.722462
          0.722541 0.722699 0.722818 0.722872 0.722901 0.72288 0.722837 0.722795 0.722815 0.722857 0.722889 0.722903
        </DataArray>
        <DataArray type="Float32" Name="process rank" NumberOfComponents="1" format="ascii">
          0 0 0 0 0 0 0 0 0 0 0 0
          0 0 0 0 0 0 0 0 0 0 0 0
          0 0 0 0 0 0 0 0 0 0 0 0
          0 0 0 0 0 0 0 0 0 0 0 0
          0 0 0 0 0 0 0 0 0 0 0 0
          0 0 0 0 0 0 0 0 0 0 0 0
          0 0 0 0 0 0 0 0 0 0 0 0
          0 0 0 0 0 0 0 0 0 0 0 0
          0 0 0 0 0 0 0 0 0 0 0 0
          0 0 0 0 0 0 0 0 0 0 0 0
          0 0 0 0 0 0 0 0 0 0 0 0
          0 0 0 0 0 0 0 0 0 0 0 0
          0 0 0 0 0 0 0 0 0 0 0 0
          0 0 0 0 0 0 0 0 0 0 0 0
          0 0 0 0 0 0 0 0 0 0 0 0
          0 0 0 0 0 0 0 0 0 0 0 0
          0 0 0 0 0 0 0 0 0 0 0 0
          0 0 0 0 0 0 0 0 0 0 0 0
          0 0 0 0 0 0 0 0 0 0 0 0
          0 0 0 0 0 0 0 0 0 0 0 0
          0 0 0 0 0 0 0 0 0 0 0 0
          0 0 0 0 0 0 0 0 0 0 0 0
          0 0 0 0 0 0 0 0 0 0 0 0
          0 0 0 0 0 0 0 0 0 0 0 0
          0 0 0 0 0 0 0 0 0 0 0 0
          0 0 0 0 0 0 0 0 0 0 0 0
          0 0 0 0 0 0 0 0 0 0 0 0
          0 0 0 0 0 0 0 0 0 0 0 0
          0 0 0 0 0 0 0 0 0 0 0 0
          0 0 0 0 0 0 0 0 0 0 0 0
          0 0 0 0 0 0 0 0 0 0 0 0
          0 0 0 0 0 0 0 0 0 0 0 0
          0 0 0 0 0 0 0 0 0 0 0 0
          0 0 0 0 0 0 0 0 0 0 0 0
          0 0 0 0 0 0 0 0 0 0 0 0
          0 0 0 0 0 0 0 0 0 0 0 0
          0 0 0 0 0 0 0 0 0 0 0 0
          0 0 0 0 0 0 0 0 0 0 0 0
          0 0 0 0 0 0 0 0 0 0 0 0
          0 0 0 0 0 0 0 0 0 0 0 0
          0 0 0 0 0 0 0 0 0 0 0 0
          0 0 0 0 0 0 0 0 0 0 0 0
          0 0 0 0 0 0 0 0 0 0 0 0
          0 0 0 0 0 0 0 0 0 0 0 0
          0 0 0 0 0 0 0 0 0 0 0 0
          0 0 0 0 0 0 0 0 0 0 0 0
          0 0 0 0 0 0 0 0 0 0 0 0
          0 0 0 0 0 0 0 0 0 0 0 0
          0 0 0 0 0 0 0 0 0 0 0 0
          0 0 0 0 0 0 0 0 0 0 0 0
          0 0 0 0 0 0 0 0 0 0 0 0
          0 0 0 0 0 0 0 0 0 0 0 0
          0 0 0 0 0 0 0 0 0 0 0 0
          0 0 0 0 0 0 0 0 0 0 0 0
          0 0 0 0 0 0 0 0 0 0 0 0
          0 0 0 0 0 0 0 0 0 0 0 0
          0 0 0 0 0 0 0 0 0 0 0 0
          0 0 0 0 0 0 0 0 0 0 0 0
          0 0 0 0 0 0 0 0 0 0 0 0
          0 0 0 0 0 0 0 0 0 0 0 0
          0 0 0 0 0 0 0 0 0 0 0 0
          0 0 0 0 0 0 0 0 0 0 0 0
          0 0 0 0 0 0 0 0 0 0 0 0
          0 0 0 0 0 0 0 0 0 0 0 0
          0 0 0 0 0 0 0 0 0 0 0 0
          0 0 0 0 0 0 0 0 0 0 0 0
          0 0 0 0 0 0 0 0 0 0 0 0
          0 0 0 0 0 0 0 0 0 0 0 0
          0 0 0 0 0 0 0 0 0 0 0 0
          0 0 0 0 0 0 0 0 0 0 0 0
          0 0 0 0 0 0 0 0 0 0 0 0
          0 0 0 0 0 0 0 0 0 0 0 0
          0 0 0 0 0 0 0 0 0 0 0 0
          0 0 0 0 0 0 0 0 0 0 0 0
          0 0 0 0 0 0 0 0 0 0 0 0
          0 0 0 0 0 0 0 0 0 0 0 0
          0 0 0 0 0 0 0 0 0 0 0 0
          0 0 0 0 0 0 0 0 0 0 0 0
          0 0 0 0 0 0 0 0 0 0 0 0
          0 0 0 0 0 0 0 0 0 0 0 0
        </DataArray>
      </CellData>
      <Points>
        <DataArray type="Float32" Name="Coordinates" NumberOfComponents="3" format="ascii">
          -0.04 -0.04 -0.15 -0.03 -0.04 -0.15 -0.04 -0.03 -0.15 -0.03 -0.03 -0.15
          -0.04 -0.04 -0.14 -0.03 -0.04 -0.14 -0.04 -0.03 -0.14 -0.03 -0.03 -0.14
          -0.02 -0.04 -0.15 -0.02 -0.03 -0.15 -0.02 -0.04 -0.14 -0.02 -0.03 -0.14
          -0.01 -0.04 -0.15 -0.01 -0.03 -0.15 -0.01 -0.04 -0.14 -0.01 -0.03 -0.14
          0 -0.04 -0.15 0 -0.03 -0.15 0 -0.04 -0.14 0 -0.03 -0.14
          0.01 -0.04 -0.15 0.01 -0.03 -0.15 0.01 -0.04 -0.14 0.01 -0.03 -0.14
          0.02 -0.04 -0.15 0.02 -0.03 -0.15 0.02 -0.04 -0.14 0.02 -0.03 -0.14
          0.03 -0.04 -0.15 0.03 -0.03 -0.15 0.03 -0.04 -0.14 0.03 -0.03 -0.14
          0.04 -0.04 -0.15 0.04 -0.03 -0.15 0.04 -0.04 -0.14 0.04 -0.03 -0.14
          -0.04 -0.02 -0.15 -0.03 -0.02 -0.15 -0.04 -0.02 -0.14 -0.03 -0.02 -0.14
          -0.02 -0.02 -0.15 -0.02 -0.02 -0.14 -0.01 -0.02 -0.15 -0.01 -0.02 -0.14
          0 -0.02 -0.15 0 -0.02 -0.14 0.01 -0.02 -0.15 0.01 -0.02 -0.14
          0.02 -0.02 -0.15 0.02 -0.02 -0.14 0.03 -0.02 -0.15 0.03 -0.02 -0.14
          0.04 -0.02 -0.15 0.04 -0.02 -0.14 -0.04 -0.01 -0.15 -0.03 -0.01 -0.15
          -0.04 -0.01 -0.14 -0.03 -0.01 -0.14 -0.02 -0.01 -0.15 -0.02 -0.01 -0.14
          -0.01 -0.01 -0.15 -0.01 -0.01 -0.14 0 -0.01 -0.15 0 -0.01 -0.14
          0.01 -0.01 -0.15 0.01 -0.01 -0.14 0.02 -0.01 -0.15 0.02 -0.01 -0.14
          0.03 -0.01 -0.15 0.03 -0.01 -0.14 0.04 -0.01 -0.15 0.04 -0.01 -0.14
          -0.04 0 -0.15 -0.03 0 -0.15 -0.04 0 -0.14 -0.03 0 -0.14
          -0.02 0 -0.15 -0.02 0 -0.14 -0.01 0 -0.15 -0.01 0 -0.14
          0 0 -0.15 0 0 -0.14 0.01 0 -0.15 0.01 0 -0.14
          0.02 0 -0.15 0.02 0 -0.14 0.03 0 -0.15 0.03 0 -0.14
          0.04 0 -0.15 0.04 0 -0.14 -0.04 0.01 -0.15 -0.03 0.01 -0.15
          -0.04 0.01 -0.14 -0.03 0.01 -0.14 -0.02 0.01 -0.15 -0.02 0.01 -0.14
          -0.01 0.01 -0.15 -0.01 0.01 -0.14 0 0.01 -0.15 0 0.01 -0.14
          0.01 0.01 -0.15 0.01 0.01 -0.14 0.02 0.01 -0.15 0.02 0.01 -0.14
          0.03 0.01 -0.15 0.03 0.01 -0.14 0.04 0.01 -0.15 0.04 0.01 -0.14
          -0.04 0.02 -0.15 -0.03 0.02 -0.15 -0.04 0.02 -0.14 -0.03 0.02 -0.14
          -0.02 0.02 -0.15 -0.02 0.02 -0.14 -0.01 0.02 -0.15 -0.01 0.02 -0.14
          0 0.02 -0.15 0 0.02 -0.14 0.01 0.02 -0.15 0.01 0.02 -0.14
          0.02 0.02 -0.15 0.02 0.02 -0.14 0.03 0.02 -0.15 0.03 0.02 -0.14
          0.04 0.02 -0.15 0.04 0.02 -0.14 -0.04 0.03 -0.15 -0.03 0.03 -0.15
          -0.04 0.03 -0.14 -0.03 0.03 -0.14 -0.02 0.03 -0.15 -0.02 0.03 -0.14
          -0.01 0.03 -0.15 -0.01 0.03 -0.14 0 0.03 -0.15 0 0.03 -0.14
          0.01 0.03 -0.15 0.01 0.03 -0.14 0.02 0.03 -0.15 0.02 0.03 -0.14
          0.03 0.03 -0.15 0.03 0.03 -0.14 0.04 0.03 -0.15 0.04 0.03 -0.14
          -0.04 0.04 -0.15 -0.03 0.04 -0.15 -0.04 0.04 -0.14 -0.03 0.04 -0.14
          -0.02 0.04 -0.15 -0.02 0.04 -0.14 -0.01 0.04 -0.15 -0.01 0.04 -0.14
          0 0.04 -0.15 0 0.04 -0.14 0.01 0.04 -0.15 0.01 0.04 -0.14
          0.02 0.04 -0.15 0.02 0.04 -0.14 0.03 0.04 -0.15 0.03 0.04 -0.14
          0.04 0.04 -0.15 0.04 0.04 -0.14 -0.04 -0.04 -0.13 -0.03 -0.04 -0.13
          -0.04 -0.03 -0.13 -0.03 -0.03 -0.13 -0.02 -0.04 -0.13 -0.02 -0.03 -0.13
          -0.01 -0.04 -0.13 -0.01 -0.03 -0.13 0 -0.04 -0.13 0 -0.03 -0.13
          0.01 -0.04 -0.13 0.01 -0.03 -0.13 0.02 -0.04 -0.13 0.02 -0.03 -0.13
          0.03 -0.04 -0.13 0.03 -0.03 -0.13 0.04 -0.04 -0.13 0.04 -0.03 -0.13
          -0.04 -0.02 -0.13 -0.03 -0.02 -0.13 -0.02 -0.02 -0.13 -0.01 -0.02 -0.13
          0 -0.02 -0.13 0.01 -0.02 -0.13 0.02 -0.02 -0.13 0.03 -0.02 -0.13
          0.04 -0.02 -0.13 -0.04 -0.01 -0.13 -0.03 -0.01 -0.13 -0.02 -0.01 -0.13
          -0.01 -0.01 -0.13 0 -0.01 -0.13 0.01 -0.01 -0.13 0.02 -0.01 -0.13
          0.03 -0.01 -0.13 0.04 -0.01 -0.13 -0.04 0 -0.13 -0.03 0 -0.13
          -0.02 0 -0.13 -0.01 0 -0.13 0 0 -0.13 0.01 0 -0.13
          0.02 0 -0.13 0.03 0 -0.13 0.04 0 -0.13 -0.04 0.01 -0.13
          -0.03 0.01 -0.13 -0.02 0.01 -0.13 -0.01 0.01 -0.13 0 0.01 -0.13
          0.01 0.01 -0.13 0.02 0.01 -0.13 0.03 0.01 -0.13 0.04 0.01 -0.13
          -0.04 0.02 -0.13 -0.03 0.02 -0.13 -0.02 0.02 -0.13 -0.01 0.02 -0.13
          0 0.02 -0.13 0.01 0.02 -0.13 0.02 0.02 -0.13 0.03 0.02 -0.13
          0.04 0.02 -0.13 -0.04 0.03 -0.13 -0.03 0.03 -0.13 -0.02 0.03 -0.13
          -0.01 0.03 -0.13 0 0.03 -0.13 0.01 0.03 -0.13 0.02 0.03 -0.13
          0.03 0.03 -0.13 0.04 0.03 -0.13 -0.04 0.04 -0.13 -0.03 0.04 -0.13
          -0.02 0.04 -0.13 -0.01 0.04 -0.13 0 0.04 -0.13 0.01 0.04 -0.13
          0.02 0.04 -0.13 0.03 0.04 -0.13 0.04 0.04 -0.13 -0.04 -0.04 -0.12
          -0.03 -0.04 -0.12 -0.04 -0.03 -0.12 -0.03 -0.03 -0.12 -0.02 -0.04 -0.12
          -0.02 -0.03 -0.12 -0.01 -0.04 -0.12 -0.01 -0.03 -0.12 0 -0.04 -0.12
          0 -0.03 -0.12 0.01 -0.04 -0.12 0.01 -0.03 -0.12 0.02 -0.04 -0.12
          0.02 -0.03 -0.12 0.03 -0.04 -0.12 0.03 -0.03 -0.12 0.04 -0.04 -0.12
          0.04 -0.03 -0.12 -0.04 -0.02 -0.12 -0.03 -0.02 -0.12 -0.02 -0.02 -0.12
          -0.01 -0.02 -0.12 0 -0.02 -0.12 0.01 -0.02 -0.12 0.02 -0.02 -0.12
          0.03 -0.02 -0.12 0.04 -0.02 -0.12 -0.04 -0.01 -0.12 -0.03 -0.01 -0.12
          -0.02 -0.01 -0.12 -0.01 -0.01 -0.12 0 -0.01 -0.12 0.01 -0.01 -0.12
          0.02 -0.01 -0.12 0.03 -0.01 -0.12 0.04 -0.01 -0.12 -0.04 0 -0.12
          -0.03 0 -0.12 -0.02 0 -0.12 -0.01 0 -0.12 0 0 -0.12
          0.01 0 -0.12 0.02 0 -0.12 0.03 0 -0.12 0.04 0 -0.12
          -0.04 0.01 -0.12 -0.03 0.01 -0.12 -0.02 0.01 -0.12 -0.01 0.01 -0.12
          0 0.01 -0.12 0.01 0.01 -0.12 0.02 0.01 -0.12 0.03 0.01 -0.12
          0.04 0.01 -0.12 -0.04 0.02 -0.12 -0.03 0.02 -0.12 -0.02 0.02 -0.12
          -0.01 0.02 -0.12 0 0.02 -0.12 0.01 0.02 -0.12 0.02 0.02 -0.12
          0.03 0.02 -0.12 0.04 0.02 -0.12 -0.04 0.03 -0.12 -0.03 0.03 -0.12
          -0.02 0.03 -0.12 -0.01 0.03 -0.12 0 0.03 -0.12 0.01 0.03 -0.12
          0.02 0.03 -0.12 0.03 0.03 -0.12 0.04 0.03 -0.12 -0.04 0.04 -0.12
          -0.03 0.04 -0.12 -0.02 0.04 -0.12 -0.01 0.04 -0.12 0 0.04 -0.12
          0.01 0.04 -0.12 0.02 0.04 -0.12 0.03 0.04 -0.12 0.04 0.04 -0.12
          -0.04 -0.04 -0.11 -0.03 -0.04 -0.11 -0.04 -0.03 -0.11 -0.03 -0.03 -0.11
          -0.02 -0.04 -0.11 -0.02 -0.03 -0.11 -0.01 -0.04 -0.11 -0.01 -0.03 -0.11
          0 -0.04 -0.11 0 -0.03 -0.11 0.01 -0.04 -0.11 0.01 -0.03 -0.11
          0.02 -0.04 -0.11 0.02 -0.03 -0.11 0.03 -0.04 -0.11 0.03 -0.03 -0.11
          0.04 -0.04 -0.11 0.04 -0.03 -0.11 -0.04 -0.02 -0.11 -0.03 -0.02 -0.11
          -0.02 -0.02 -0.11 -0.01 -0.02 -0.11 0 -0.02 -0.11 0.01 -0.02 -0.11
          0.02 -0.02 -0.11 0.03 -0.02 -0.11 0.04 -0.02 -0.11 -0.04 -0.01 -0.11
          -0.03 -0.01 -0.11 -0.02 -0.01 -0.11 -0.01 -0.01 -0.11 0 -0.01 -0.11
          0.01 -0.01 -0.11 0.02 -0.01 -0.11 0.03 -0.01 -0.11 0.04 -0.01 -0.11
          -0.04 0 -0.11 -0.03 0 -0.11 -0.02 0 -0.11 -0.01 0 -0.11
          0 0 -0.11 0.01 0 -0.11 0.02 0 -0.11 0.03 0 -0.11
          0.04 0 -0.11 -0.04 0.01 -0.11 -0.03 0.01 -0.11 -0.02 0.01 -0.11
          -0.01 0.01 -0.11 0 0.01 -0.11 0.01 0.01 -0.11 0.02 0.01 -0.11
          0.03 0.01 -0.11 0.04 0.01 -0.11 -0.04 0.02 -0.11 -0.03 0.02 -0.11
          -0.02 0.02 -0.11 -0.01 0.02 -0.11 0 0.02 -0.11 0.01 0.02 -0.11
          0.02 0.02 -0.11 0.03 0.02 -0.11 0.04 0.02 -0.11 -0.04 0.03 -0.11
          -0.03 0.03 -0.11 -0.02 0.03 -0.11 -0.01 0.03 -0.11 0 0.03 -0.11
          0.01 0.03 -0.11 0.02 0.03 -0.11 0.03 0.03 -0.11 0.04 0.03 -0.11
          -0.04 0.04 -0.11 -0.03 0.04 -0.11 -0.02 0.04 -0.11 -0.01 0.04 -0.11
          0 0.04 -0.11 0.01 0.04 -0.11 0.02 0.04 -0.11 0.03 0.04 -0.11
          0.04 0.04 -0.11 -0.04 -0.04 -0.1 -0.03 -0.04 -0.1 -0.04 -0.03 -0.1
          -0.03 -0.03 -0.1 -0.02 -0.04 -0.1 -0.02 -0.03 -0.1 -0.01 -0.04 -0.1
          -0.01 -0.03 -0.1 0 -0.04 -0.1 0 -0.03 -0.1 0.01 -0.04 -0.1