<?xml version="1.0"?>
<VTKFile type="UnstructuredGrid" version="0.1" byte_order="LittleEndian">
  <UnstructuredGrid>
    <Piece NumberOfCells="960" NumberOfPoints="1296">
      <CellData Scalars="p (Pa)">
        <DataArray type="Float32" Name="p (Pa)" NumberOfComponents="1" format="ascii">
          -158537 -160117 -162860 -165980 -168480 -169666 -169806 -169619 -157993 -159610 -162433 -165663
          -168229 -169317 -169307 -169024 -156791 -158403 -161229 -164478 -167042 -168006 -167853 -167484
          -154887 -156375 -158961 -161893 -164183 -165120 -165034 -164715 -152502 -153776 -155962 -158394
          -160276 -161144 -161206 -161025 -150062 -151103 -152868 -154806 -156317 -157101 -157286 -157236
          -148070 -148922 -150356 -151925 -153178 -153897 -154159 -154195 -146951 -147698 -148955 -150332
          -151454 -152140 -152437 -152515 -163365 -165451 -169117 -173331 -176574 -177612 -177169 -176540
          -162887 -165083 -169000 -173598 -177145 -177906 -177061 -176189 -161696 -163953 -168031 -172931
          -176776 -177192 -175928 -174811 -159621 -161706 -165414 -169723 -172969 -173648 -172673 -171685
          -156896 -158656 -161711 -165109 -167519 -168223 -167729 -167106 -154038 -155431 -157796 -160340
          -162122 -162784 -162641 -162332 -151674 -152768 -154599 -156541 -157944 -158579 -158645 -158529
          -150339 -151270 -152818 -154459 -155685 -156310 -156471 -156445 -172828 -176026 -181789 -188617
          -193728 -194168 -192157 -190424 -172533 -176057 -182606 -190802 -197252 -196571 -193232 -190768
          -171433 -175237 -182539 -192315 -200878 -198406 -193374 -190031 -169035 -172560 -179112 -187229
          -193403 -193150 -189304 -186265 -165612 -168549 -173812 -179801 -183432 -183534 -181432 -179559
          -161862 -164095 -167943 -172021 -174301 -174515 -173488 -172501 -158695 -160350 -163116 -165935
          -167589 -167934 -167493 -167004 -156891 -158234 -160440 -162666 -164066 -164495 -164316 -164045
          -186753 -191839 -201319 -213167 -222228 -220838 -215466 -211557 -186854 -192766 -204417 -220654
          -235155 -229016 -219413 -213452 -186053 -192848 -207152 -230358 -258679 -240507 -223669 -214603
          -183214 -189548 -202137 -219537 -234109 -231926 -219257 -210304 -178709 -184018 -194163 -206680
          -211920 -210223 -204207 -199249 -173475 -177369 -184366 -191971 -194473 -193294 -190314 -187866
          -168952 -171655 -176246 -180827 -182602 -182124 -180630 -179407 -166359 -168427 -171823 -175099
          -176639 -176564 -175714 -174988 -204579 -212368 -227394 -247348 -263508 -258144 -247032 -239637
          -205348 -214897 -234968 -266860 -302034 -278916 -256486 -244227 -205177 -216961 -244867 -305489
          -444486 -323846 -271570 -249598 -201841 -213004 -237171 -275833 -312220 -318723 -274380 -246578
          -195902 -205626 -226615 -259210 -259420 -252935 -239029 -226746 -188479 -195382 -208947 -225759
          -224966 -219822 -213200 -207955 -181921 -186379 -194308 -202484 -203353 -200851 -197476 -195010
          -178156 -181348 -186676 -191716 -193095 -191937 -189958 -188515 -225055 -235995 -257444 -286575
          -309226 -301536 -284437 -272962 -226637 -240514 -270573 -320357 -362092 -333048 -299861 -280436
          -227289 -245423 -291781 -413937 -515046 -403070 -331278 -291386 -223415 -241349 -283676 -361056
          -397272 -381876 -397441 -295380 -215768 -232556 -277084 -403685 -327597 -302333 -287901 -259342
          -205507 -217094 -243606 -290700 -266766 -251228 -239817 -230291 -196315 -203238 -216588 -232335
          -228791 -222191 -216112 -211991 -191073 -195698 -203690 -211452 -211940 -208987 -205485 -203153
          -246336 -260303 -287516 -324085 -353765 -347884 -324924 -309218 -248571 -266325 -303674 -360737
          -408372 -382096 -341206 -316976 -249641 -272974 -328671 -441464 -525024 -449325 -367960 -325783
          -244654 -268883 -329376 -464826 -506208 -498429 -381866 -319063 -234622 -257180 -318585 -477937
          -392241 -351239 -308635 -281646 -221473 -237441 -279788 -400476 -310598 -280105 -260401 -248825
          -209757 -218821 -237725 -264828 -252967 -241623 -232622 -227301 -203165 -208949 -219283 -229929
          -229225 -224620 -219800 -216790 -266486 -283406 -316244 -359914 -399718 -405279 -370737 -348295
          -269201 -291013 -336042 -397468 -452774 -433432 -383461 -354147 -270084 -299182 -367156 -462159
          -555256 -491688 -398766 -356163 -261951 -288844 -351432 -458569 -531308 -467332 -375569 -334238
          -248369 -271152 -329348 -472523 -412989 -360325 -317916 -295528 -232622 -247420 -280095 -331072
          -314412 -291585 -272452 -261672 -219610 -228258 -244731 -263603 -261557 -252795 -244131 -238933
          -212449 -218181 -228086 -237787 -239032 -235315 -230670 -227679 -283260 -302920 -341750 -393742
          -451376 -506135 -426999 -390446 -286217 -312906 -371475 -438414 -500691 -501553 -433210 -395347
          -286667 -326782 -458887 -526843 -593403 -538645 -435944 -393562 -273623 -301415 -364699 -445671
          -522606 -450053 -383112 -351220 -256059 -274852 -314314 -370290 -385104 -354597 -323047 -305683
          -238820 -250490 -272857 -299660 -304580 -292617 -278537 -270018 -225587 -232679 -245210 -258287
          -261664 -257222 -250879 -246725 -218478 -223429 -231733 -239836 -242797 -241052 -237666 -235269
          -294166 -314235 -354101 -411521 -482800 -551493 -471630 -427174 -295642 -320708 -372782 -445420
          -527344 -570423 -484967 -438953 -292898 -324035 -395943 -487003 -572547 -544458 -476277 -462286
          -278321 -301674 -350591 -417260 -463441 -435612 -394182 -371510 -259371 -274487 -303749 -340289
          -359280 -346729 -326546 -313666 -241824 -251043 -267702 -286390 -295104 -290462 -281417 -275153
          -228866 -234591 -244405 -254621 -259637 -258341 -254379 -251394 -222028 -226161 -233035 -239956
          -243702 -243619 -241617 -239946 -300198 -320105 -360082 -417791 -482996 -527641 -482969 -442639
          -300576 -325317 -378864 -456669 -538397 -592268 -520202 -456310 -296204 -327367 -412623 -522076
          -583967 -580501 -529779 -449162 -280535 -303008 -354527 -446636 -456190 -439842 -406263 -374310
          -260958 -274575 -301506 -337007 -351005 -344309 -328653 -315903 -243407 -251376 -265764 -282154
          -290644 -288921 -282380 -277099 -230734 -235633 -244029 -252970 -258226 -258421 -255856 -253594
          -224127 -227692 -233650 -239847 -243801 -244631 -243542 -242389 -302471 -321258 -359011 -413955
          -472164 -503086 -473938 -436084 -301751 -324259 -372748 -450391 -529529 -575391 -529077 -447444
          -295924 -321964 -385386 -511856 -572692 -552852 -475220 -418244 -280634 -300379 -344087 -419766
          -442426 -424510 -387523 -360925 -261584 -273846 -297798 -329077 -344024 -337736 -322478 -311149
          -244405 -251623 -264600 -279399 -287691 -286448 -280562 -275877 -231992 -236433 -244044 -252221
          -257322 -257869 -255794 -253879 -225531 -228767 -234194 -239921 -243786 -244886 -244173 -243272
          -302993 -320491 -355268 -404799 -453633 -461577 -435544 -411040 -301702 -322073 -364921 -432064
          -505248 -501907 -452272 -412188 -295419 -317882 -368261 -455531 -552313 -524223 -431833 -389631
          -281024 -299104 -336964 -392740 -430294 -408726 -369080 -346221 -262584 -274331 -296774 -324626
          -339928 -331568 -315388 -304808 -245574 -252593 -265097 -279008 -286556 -284346 -278073 -273513
          -233168 -237472 -244815 -252583 -257219 -257367 -255154 -253270 -226695 -229809 -235016 -240460
          -244046 -244964 -244211 -243338 -303438 -320413 -354030 -401543 -446632 -436824 -409754 -390700
          -302373 -322414 -364702 -432634 -519562 -468465 -417208 -388471 -296804 -319707 -371189 -459955
          -553559 -491730 -406232 -371071 -283414 -303569 -347879 -416791 -438918 -399596 -357557 -336035
          -264805 -277930 -303766 -336057 -344885 -329392 -310860 -300092 -247250 -254866 -268585 -283521
          -288810 -283951 -276449 -271585 -234425 -238925 -246601 -254488 -258303 -257460 -254691 -252621
          -227751 -230916 -236182 -241552 -244746 -245207 -244169 -243185 -303965 -320874 -354058 -399242
          -435911 -423302 -397232 -380235 -303418 -324012 -367397 -433827 -490675 -448143 -402064 -377222
          -298991 -324487 -384515 -495568 -568203 -465285 -393377 -362079 -286592 -311772 -376613 -519048
          -466026 -398128 -352545 -331122 -267231 -282945 -316526 -364084 -356123 -330593 -309156 -297829
          -248778 -257372 -273395 -291219 -292811 -284773 -275923 -270665 -235400 -240222 -248521 -256917
          -259799 -257924 -254592 -252315 -228488 -231764 -237210 -242648 -245500 -245534 -244219 -243118
        </DataArray>
        <DataArray type="Float32" Name="saturation" NumberOfComponents="1" format="ascii">
          0.789399 0.789079 0.788529 0.787911 0.78742 0.78719 0.787163 0.787199 0.78951 0.789182 0.788614 0.787973
          0.787469 0.787257 0.787259 0.787314 0.789755 0.789426 0.788856 0.788207 0.787702 0.787513 0.787543 0.787615
          0.790146 0.78984 0.789313 0.788722 0.788266 0.78808 0.788097 0.78816 0.79064 0.790376 0.789925 0.789428
          0.789047 0.788873 0.78886 0.788897 0.791151 0.790933 0.790564 0.790163 0.789852 0.789692 0.789654 0.789664
          0.791572 0.791392 0.791089 0.790761 0.7905 0.790351 0.790296 0.790289 0.79181 0.791651 0.791385 0.791094
          0.790859 0.790716 0.790654 0.790638 0.788428 0.788015 0.787296 0.786483 0.785867 0.785671 0.785754 0.785873
          0.788524 0.788088 0.787319 0.786432 0.785759 0.785616 0.785775 0.78594 0.788762 0.788312 0.787508 0.78656
          0.785828 0.78575 0.785989 0.786201 0.78918 0.78876 0.788022 0.787179 0.786553 0.786423 0.786609 0.786799
          0.789734 0.789375 0.788759 0.788082 0.787608 0.787471 0.787567 0.787689 0.790321 0.790034 0.78955 0.789035
          0.788677 0.788544 0.788573 0.788635 0.790813 0.790585 0.790205 0.789806 0.78952 0.789391 0.789377 0.789401
          0.791093 0.790898 0.790575 0.790235 0.789982 0.789854 0.789821 0.789826 0.78658 0.78597 0.784891 0.783643
          0.782728 0.782651 0.783008 0.783318 0.786636 0.785964 0.78474 0.78325 0.782108 0.782228 0.782817 0.783256
          0.786848 0.78612 0.784752 0.78298 0.781478 0.781907 0.782791 0.783388 0.787312 0.786631 0.785389 0.783894
          0.782786 0.782831 0.783519 0.784069 0.787983 0.787407 0.786391 0.785261 0.784588 0.784569 0.784957 0.785306
          0.788729 0.788283 0.787525 0.786735 0.786298 0.786257 0.786453 0.786642 0.789367 0.789032 0.788478 0.787919
          0.787595 0.787527 0.787613 0.787709 0.789735 0.789461 0.789014 0.788568 0.788289 0.788204 0.788239 0.788293
          0.78398 0.783064 0.781402 0.779402 0.777926 0.778149 0.779023 0.779669 0.783962 0.782899 0.780871 0.778179
          0.775896 0.77685 0.77838 0.779355 0.784108 0.782885 0.780407 0.776639 0.77241 0.77508 0.777696 0.779165
          0.784628 0.783475 0.781261 0.77836 0.776057 0.776395 0.778405 0.779878 0.785465 0.78448 0.782652 0.780487
          0.779608 0.779891 0.780907 0.78176 0.786456 0.785717 0.784416 0.783041 0.782597 0.782805 0.783337 0.783778
          0.787328 0.786805 0.785929 0.78507 0.784741 0.784829 0.785106 0.785334 0.787836 0.787431 0.786773 0.786146
          0.785854 0.785869 0.786029 0.786167 0.780843 0.779534 0.777104 0.774057 0.771724 0.772486 0.774104 0.775212
          0.780713 0.779117 0.775925 0.771255 0.766586 0.769602 0.772724 0.774521 0.780742 0.778778 0.774426 0.766152
          0.751368 0.763908 0.770602 0.773726 0.781312 0.779429 0.775587 0.770019 0.765316 0.764523 0.770217 0.774171
          0.782345 0.780665 0.777227 0.772334 0.772304 0.773238 0.775304 0.777207 0.783668 0.782436 0.780105 0.777363
          0.777489 0.778314 0.779396 0.780271 0.784867 0.784048 0.782626 0.781202 0.781053 0.781483 0.782069 0.782502
          0.785569 0.784973 0.783994 0.783086 0.782841 0.783047 0.783401 0.783661 0.777475 0.775767 0.772587 0.768581
          0.765686 0.766649 0.768864 0.770411 0.777224 0.775079 0.770739 0.764326 0.759553 0.762822 0.766862 0.769398
          0.777121 0.774343 0.7679 0.754235 0.745363 0.7553 0.763029 0.767951 0.777736 0.774953 0.768965 0.759666
          0.755879 0.757451 0.755862 0.767435 0.778973 0.776297 0.769849 0.755239 0.763462 0.766549 0.768407 0.772315
          0.780685 0.778757 0.774614 0.768041 0.771268 0.773487 0.775185 0.77665 0.782272 0.781072 0.778839 0.776332
          0.776885 0.777932 0.778917 0.779597 0.783201 0.782381 0.780995 0.779686 0.779605 0.780098 0.780689 0.781087
          0.774207 0.772178 0.768458 0.763879 0.760467 0.761124 0.763779 0.765687 0.773877 0.771329 0.76638 0.7597
          0.754777 0.757428 0.761881 0.764735 0.773719 0.770409 0.763335 0.751643 0.744574 0.75093 0.758919 0.763677
          0.774458 0.770973 0.763252 0.749554 0.746073 0.746707 0.757452 0.764482 0.775978 0.772624 0.76454 0.748422
          0.756386 0.760748 0.765759 0.769236 0.778047 0.775546 0.769485 0.755558 0.765516 0.769442 0.772164 0.773839
          0.779969 0.778476 0.775503 0.771539 0.773233 0.774912 0.776287 0.777119 0.781085 0.780104 0.778401 0.776707
          0.776817 0.777544 0.778317 0.778806 0.771307 0.769001 0.764824 0.75979 0.755634 0.755082 0.758622 0.761077
          0.770929 0.768 0.762474 0.755859 0.75062 0.752385 0.757286 0.760425 0.770807 0.766948 0.759006 0.749787
          0.742267 0.747264 0.755729 0.760202 0.771944 0.768283 0.760726 0.750104 0.744085 0.749335 0.758111 0.762684
          0.773906 0.77066 0.763256 0.748886 0.754327 0.759745 0.764621 0.767416 0.776287 0.774047 0.769444 0.763053
          0.765048 0.767926 0.770481 0.771984 0.778348 0.776969 0.774446 0.771711 0.772 0.773258 0.774536 0.775319
          0.779521 0.77858 0.776996 0.775493 0.775304 0.775872 0.776591 0.77706 0.76902 0.766474 0.761818 0.756234
          0.750745 0.746078 0.752987 0.756569 0.768629 0.765232 0.758544 0.751923 0.746522 0.746451 0.752405 0.756072
          0.768569 0.763559 0.750076 0.744432 0.739515 0.74352 0.752151 0.756253 0.77032 0.766665 0.75927 0.75126
          0.744764 0.750864 0.757322 0.76075 0.772786 0.770153 0.76506 0.75867 0.757117 0.760375 0.764003 0.766127
          0.775336 0.773595 0.770425 0.766887 0.766266 0.767792 0.769653 0.770816 0.77739 0.776278 0.774375 0.772466
          0.771985 0.772618 0.773538 0.77415 0.778531 0.777734 0.776425 0.775182 0.774735 0.774998 0.775512 0.775879
          0.767591 0.765069 0.76043 0.75447 0.748009 0.742548 0.748963 0.752971 0.767401 0.764284 0.758405 0.751283
          0.744393 0.741153 0.747826 0.751874 0.767755 0.763885 0.756012 0.747655 0.740999 0.743077 0.748563 0.749776
          0.769682 0.766632 0.76082 0.753914 0.749675 0.752182 0.75619 0.75854 0.772311 0.770202 0.76637 0.761985
          0.759859 0.761253 0.763587 0.765139 0.774882 0.773514 0.771137 0.768606 0.76747 0.768072 0.769266 0.770112
          0.776873 0.775983 0.774495 0.772993 0.772273 0.772458 0.773028 0.773462 0.777958 0.777299 0.776223 0.775164
          0.7746 0.774612 0.774913 0.775165 0.766819 0.764357 0.759772 0.753863 0.747992 0.74437 0.747994 0.751536
          0.766771 0.763733 0.757765 0.750272 0.743539 0.739595 0.744954 0.750304 0.767329 0.763489 0.754363 0.744806
          0.74018 0.740427 0.744204 0.750944 0.769384 0.766463 0.760383 0.751172 0.750315 0.751792 0.754985 0.758243
          0.772085 0.77019 0.766653 0.762363 0.760774 0.761527 0.763338 0.764866 0.774644 0.773465 0.771408 0.769168
          0.768048 0.768273 0.769138 0.769848 0.776581 0.775823 0.774551 0.773233 0.772474 0.772447 0.772815 0.773142
          0.777623 0.777058 0.776128 0.77518 0.774585 0.774461 0.774624 0.774797 0.766531 0.764218 0.759889 0.754233
          0.748917 0.746326 0.748764 0.752139 0.766622 0.763859 0.758409 0.750834 0.744223 0.740794 0.744258 0.751099
          0.767365 0.764133 0.757088 0.745618 0.740988 0.742446 0.748654 0.75382 0.769371 0.766796 0.761552 0.753674
          0.751555 0.753222 0.756868 0.75968 0.771996 0.77029 0.767125 0.763288 0.761559 0.762279 0.764071 0.765448
          0.774495 0.773429 0.771571 0.769537 0.768435 0.768598 0.769381 0.770013 0.776385 0.7757 0.774549 0.773342
          0.772604 0.772526 0.772824 0.773101 0.777399 0.776889 0.776044 0.775169 0.774587 0.774423 0.774529 0.774664
          0.766465 0.76431 0.760301 0.755129 0.750543 0.749839 0.752189 0.754517 0.766628 0.76412 0.759246 0.752512
          0.74615 0.746422 0.750665 0.754405 0.76743 0.764625 0.758887 0.750374 0.742486 0.744637 0.752534 0.756652
          0.769319 0.766958 0.762368 0.756336 0.752678 0.754743 0.758799 0.761311 0.771855 0.770224 0.767256 0.763815
          0.762027 0.762995 0.764928 0.766237 0.77432 0.773288 0.771501 0.76959 0.768584 0.768876 0.769716 0.770336
          0.776203 0.775541 0.774433 0.773289 0.772619 0.772598 0.772916 0.773189 0.777215 0.776725 0.775918 0.775087
          0.774548 0.774411 0.774524 0.774654 0.766409 0.764319 0.760438 0.755452 0.751173 0.75207 0.754642 0.756543
          0.766543 0.764079 0.75927 0.752459 0.745004 0.749237 0.753919 0.756771 0.767252 0.764404 0.758574 0.749982
          0.742393 0.74726 0.754988 0.758587 0.769 0.766393 0.761124 0.75396 0.751877 0.755646 0.760048 0.762475
          0.771542 0.769735 0.766368 0.762473 0.761462 0.763251 0.765484 0.766832 0.774072 0.772958 0.771015 0.768986
          0.768288 0.768929 0.769936 0.7706 0.776009 0.77532 0.774168 0.773013 0.772463 0.772584 0.772983 0.773284
          0.777048 0.776552 0.775739 0.774923 0.774444 0.774375 0.77453 0.774677 0.766343 0.764264 0.760434 0.755681
          0.752155 0.753337 0.755883 0.757622 0.766412 0.763888 0.75898 0.752348 0.747348 0.751036 0.7554 0.757937
          0.766972 0.763831 0.757177 0.746942 0.741314 0.749514 0.756271 0.759554 0.768579 0.765372 0.758001 0.745045
          0.749449 0.755793 0.760602 0.763047 0.771203 0.769062 0.76479 0.759337 0.760206 0.763109 0.765695 0.767121
          0.773846 0.772597 0.770352 0.767973 0.767766 0.76882 0.770007 0.770727 0.775858 0.775123 0.773884 0.772662
          0.77225 0.772518 0.772997 0.773328 0.776932 0.77642 0.775581 0.774758 0.774332 0.774326 0.774523 0.774687
        </DataArray>
        <DataArray type="Float32" Name="process rank" NumberOfComponents="1" format="ascii">
          0 0 0 0 0 0 0 0 0 0 0 0
          0 0 0 0 0 0 0 0 0 0 0 0
          0 0 0 0 0 0 0 0 0 0 0 0
          0 0 0 0 0 0 0 0 0 0 0 0
          0 0 0 0 0 0 0 0 0 0 0 0
          0 0 0 0 0 0 0 0 0 0 0 0
          0 0 0 0 0 0 0 0 0 0 0 0
          0 0 0 0 0 0 0 0 0 0 0 0
          0 0 0 0 0 0 0 0 0 0 0 0
          0 0 0 0 0 0 0 0 0 0 0 0
          0 0 0 0 0 0 0 0 0 0 0 0
          0 0 0 0 0 0 0 0 0 0 0 0
          0 0 0 0 0 0 0 0 0 0 0 0
          0 0 0 0 0 0 0 0 0 0 0 0
          0 0 0 0 0 0 0 0 0 0 0 0
          0 0 0 0 0 0 0 0 0 0 0 0
          0 0 0 0 0 0 0 0 0 0 0 0
          0 0 0 0 0 0 0 0 0 0 0 0
          0 0 0 0 0 0 0 0 0 0 0 0
          0 0 0 0 0 0 0 0 0 0 0 0
          0 0 0 0 0 0 0 0 0 0 0 0
          0 0 0 0 0 0 0 0 0 0 0 0
          0 0 0 0 0 0 0 0 0 0 0 0
          0 0 0 0 0 0 0 0 0 0 0 0
          0 0 0 0 0 0 0 0 0 0 0 0
          0 0 0 0 0 0 0 0 0 0 0 0
          0 0 0 0 0 0 0 0 0 0 0 0
          0 0 0 0 0 0 0 0 0 0 0 0
          0 0 0 0 0 0 0 0 0 0 0 0
          0 0 0 0 0 0 0 0 0 0 0 0
          0 0 0 0 0 0 0 0 0 0 0 0
          0 0 0 0 0 0 0 0 0 0 0 0
          0 0 0 0 0 0 0 0 0 0 0 0
          0 0 0 0 0 0 0 0 0 0 0 0
          0 0 0 0 0 0 0 0 0 0 0 0
          0 0 0 0 0 0 0 0 0 0 0 0
          0 0 0 0 0 0 0 0 0 0 0 0
          0 0 0 0 0 0 0 0 0 0 0 0
          0 0 0 0 0 0 0 0 0 0 0 0
          0 0 0 0 0 0 0 0 0 0 0 0
          0 0 0 0 0 0 0 0 0 0 0 0
          0 0 0 0 0 0 0 0 0 0 0 0
          0 0 0 0 0 0 0 0 0 0 0 0
          0 0 0 0 0 0 0 0 0 0 0 0
          0 0 0 0 0 0 0 0 0 0 0 0
          0 0 0 0 0 0 0 0 0 0 0 0
          0 0 0 0 0 0 0 0 0 0 0 0
          0 0 0 0 0 0 0 0 0 0 0 0
          0 0 0 0 0 0 0 0 0 0 0 0
          0 0 0 0 0 0 0 0 0 0 0 0
          0 0 0 0 0 0 0 0 0 0 0 0
          0 0 0 0 0 0 0 0 0 0 0 0
          0 0 0 0 0 0 0 0 0 0 0 0
          0 0 0 0 0 0 0 0 0 0 0 0
          0 0 0 0 0 0 0 0 0 0 0 0
          0 0 0 0 0 0 0 0 0 0 0 0
          0 0 0 0 0 0 0 0 0 0 0 0
          0 0 0 0 0 0 0 0 0 0 0 0
          0 0 0 0 0 0 0 0 0 0 0 0
          0 0 0 0 0 0 0 0 0 0 0 0
          0 0 0 0 0 0 0 0 0 0 0 0
          0 0 0 0 0 0 0 0 0 0 0 0
          0 0 0 0 0 0 0 0 0 0 0 0
          0 0 0 0 0 0 0 0 0 0 0 0
          0 0 0 0 0 0 0 0 0 0 0 0
          0 0 0 0 0 0 0 0 0 0 0 0
          0 0 0 0 0 0 0 0 0 0 0 0
          0 0 0 0 0 0 0 0 0 0 0 0
          0 0 0 0 0 0 0 0 0 0 0 0
          0 0 0 0 0 0 0 0 0 0 0 0
          0 0 0 0 0 0 0 0 0 0 0 0
          0 0 0 0 0 0 0 0 0 0 0 0
          0 0 0 0 0 0 0 0 0 0 0 0
          0 0 0 0 0 0 0 0 0 0 0 0
          0 0 0 0 0 0 0 0 0 0 0 0
          0 0 0 0 0 0 0 0 0 0 0 0
          0 0 0 0 0 0 0 0 0 0 0 0
          0 0 0 0 0 0 0 0 0 0 0 0
          0 0 0 0 0 0 0 0 0 0 0 0
          0 0 0 0 0 0 0 0 0 0 0 0
        </DataArray>
      </CellData>
      <Points>
        <DataArray type="Float32" Name="Coordinates" NumberOfComponents="3" format="ascii">
          -0.04 -0.04 -0.15 -0.03 -0.04 -0.15 -0.04 -0.03 -0.15 -0.03 -0.03 -0.15
          -0.04 -0.04 -0.14 -0.03 -0.04 -0.14 -0.04 -0.03 -0.14 -0.03 -0.03 -0.14
          -0.02 -0.04 -0.15 -0.02 -0.03 -0.15 -0.02 -0.04 -0.14 -0.02 -0.03 -0.14
          -0.01 -0.04 -0.15 -0.01 -0.03 -0.15 -0.01 -0.04 -0.14 -0.01 -0.03 -0.14
          0 -0.04 -0.15 0 -0.03 -0.15 0 -0.04 -0.14 0 -0.03 -0.14
          0.01 -0.04 -0.15 0.01 -0.03 -0.15 0.01 -0.04 -0.14 0.01 -0.03 -0.14
          0.02 -0.04 -0.15 0.02 -0.03 -0.15 0.02 -0.04 -0.14 0.02 -0.03 -0.14
          0.03 -0.04 -0.15 0.03 -0.03 -0.15 0.03 -0.04 -0.14 0.03 -0.03 -0.14
          0.04 -0.04 -0.15 0.04 -0.03 -0.15 0.04 -0.04 -0.14 0.04 -0.03 -0.14
          -0.04 -0.02 -0.15 -0.03 -0.02 -0.15 -0.04 -0.02 -0.14 -0.03 -0.02 -0.14
          -0.02 -0.02 -0.15 -0.02 -0.02 -0.14 -0.01 -0.02 -0.15 -0.01 -0.02 -0.14
          0 -0.02 -0.15 0 -0.02 -0.14 0.01 -0.02 -0.15 0.01 -0.02 -0.14
          0.02 -0.02 -0.15 0.02 -0.02 -0.14 0.03 -0.02 -0.15 0.03 -0.02 -0.14
          0.04 -0.02 -0.15 0.04 -0.02 -0.14 -0.04 -0.01 -0.15 -0.03 -0.01 -0.15
          -0.04 -0.01 -0.14 -0.03 -0.01 -0.14 -0.02 -0.01 -0.15 -0.02 -0.01 -0.14
          -0.01 -0.01 -0.15 -0.01 -0.01 -0.14 0 -0.01 -0.15 0 -0.01 -0.14
          0.01 -0.01 -0.15 0.01 -0.01 -0.14 0.02 -0.01 -0.15 0.02 -0.01 -0.14
          0.03 -0.01 -0.15 0.03 -0.01 -0.14 0.04 -0.01 -0.15 0.04 -0.01 -0.14
          -0.04 0 -0.15 -0.03 0 -0.15 -0.04 0 -0.14 -0.03 0 -0.14
          -0.02 0 -0.15 -0.02 0 -0.14 -0.01 0 -0.15 -0.01 0 -0.14
          0 0 -0.15 0 0 -0.14 0.01 0 -0.15 0.01 0 -0.14
          0.02 0 -0.15 0.02 0 -0.14 0.03 0 -0.15 0.03 0 -0.14
          0.04 0 -0.15 0.04 0 -0.14 -0.04 0.01 -0.15 -0.03 0.01 -0.15
          -0.04 0.01 -0.14 -0.03 0.01 -0.14 -0.02 0.01 -0.15 -0.02 0.01 -0.14
          -0.01 0.01 -0.15 -0.01 0.01 -0.14 0 0.01 -0.15 0 0.01 -0.14
          0.01 0.01 -0.15 0.01 0.01 -0.14 0.02 0.01 -0.15 0.02 0.01 -0.14
          0.03 0.01 -0.15 0.03 0.01 -0.14 0.04 0.01 -0.15 0.04 0.01 -0.14
          -0.04 0.02 -0.15 -0.03 0.02 -0.15 -0.04 0.02 -0.14 -0.03 0.02 -0.14
          -0.02 0.02 -0.15 -0.02 0.02 -0.14 -0.01 0.02 -0.15 -0.01 0.02 -0.14
          0 0.02 -0.15 0 0.02 -0.14 0.01 0.02 -0.15 0.01 0.02 -0.14
          0.02 0.02 -0.15 0.02 0.02 -0.14 0.03 0.02 -0.15 0.03 0.02 -0.14
          0.04 0.02 -0.15 0.04 0.02 -0.14 -0.04 0.03 -0.15 -0.03 0.03 -0.15
          -0.04 0.03 -0.14 -0.03 0.03 -0.14 -0.02 0.03 -0.15 -0.02 0.03 -0.14
          -0.01 0.03 -0.15 -0.01 0.03 -0.14 0 0.03 -0.15 0 0.03 -0.14
          0.01 0.03 -0.15 0.01 0.03 -0.14 0.02 0.03 -0.15 0.02 0.03 -0.14
          0.03 0.03 -0.15 0.03 0.03 -0.14 0.04 0.03 -0.15 0.04 0.03 -0.14
          -0.04 0.04 -0.15 -0.03 0.04 -0.15 -0.04 0.04 -0.14 -0.03 0.04 -0.14
          -0.02 0.04 -0.15 -0.02 0.04 -0.14 -0.01 0.04 -0.15 -0.01 0.04 -0.14
          0 0.04 -0.15 0 0.04 -0.14 0.01 0.04 -0.15 0.01 0.04 -0.14
          0.02 0.04 -0.15 0.02 0.04 -0.14 0.03 0.04 -0.15 0.03 0.04 -0.14
          0.04 0.04 -0.15 0.04 0.04 -0.14 -0.04 -0.04 -0.13 -0.03 -0.04 -0.13
          -0.04 -0.03 -0.13 -0.03 -0.03 -0.13 -0.02 -0.04 -0.13 -0.02 -0.03 -0.13
          -0.01 -0.04 -0.13 -0.01 -0.03 -0.13 0 -0.04 -0.13 0 -0.03 -0.13
          0.01 -0.04 -0.13 0.01 -0.03 -0.13 0.02 -0.04 -0.13 0.02 -0.03 -0.13
          0.03 -0.04 -0.13 0.03 -0.03 -0.13 0.04 -0.04 -0.13 0.04 -0.03 -0.13
          -0.04 -0.02 -0.13 -0.03 -0.02 -0.13 -0.02 -0.02 -0.13 -0.01 -0.02 -0.13
          0 -0.02 -0.13 0.01 -0.02 -0.13 0.02 -0.02 -0.13 0.03 -0.02 -0.13
          0.04 -0.02 -0.13 -0.04 -0.01 -0.13 -0.03 -0.01 -0.13 -0.02 -0.01 -0.13
          -0.01 -0.01 -0.13 0 -0.01 -0.13 0.01 -0.01 -0.13 0.02 -0.01 -0.13
          0.03 -0.01 -0.13 0.04 -0.01 -0.13 -0.04 0 -0.13 -0.03 0 -0.13
          -0.02 0 -0.13 -0.01 0 -0.13 0 0 -0.13 0.01 0 -0.13
          0.02 0 -0.13 0.03 0 -0.13 0.04 0 -0.13 -0.04 0.01 -0.13
          -0.03 0.01 -0.13 -0.02 0.01 -0.13 -0.01 0.01 -0.13 0 0.01 -0.13
          0.01 0.01 -0.13 0.02 0.01 -0.13 0.03 0.01 -0.13 0.04 0.01 -0.13
          -0.04 0.02 -0.13 -0.03 0.02 -0.13 -0.02 0.02 -0.13 -0.01 0.02 -0.13
          0 0.02 -0.13 0.01 0.02 -0.13 0.02 0.02 -0.13 0.03 0.02 -0.13
          0.04 0.02 -0.13 -0.04 0.03 -0.13 -0.03 0.03 -0.13 -0.02 0.03 -0.13
          -0.01 0.03 -0.13 0 0.03 -0.13 0.01 0.03 -0.13 0.02 0.03 -0.13
          0.03 0.03 -0.13 0.04 0.03 -0.13 -0.04 0.04 -0.13 -0.03 0.04 -0.13
          -0.02 0.04 -0.13 -0.01 0.04 -0.13 0 0.04 -0.13 0.01 0.04 -0.13
          0.02 0.04 -0.13 0.03 0.04 -0.13 0.04 0.04 -0.13 -0.04 -0.04 -0.12
          -0.03 -0.04 -0.12 -0.04 -0.03 -0.12 -0.03 -0.03 -0.12 -0.02 -0.04 -0.12
          -0.02 -0.03 -0.12 -0.01 -0.04 -0.12 -0.01 -0.03 -0.12 0 -0.04 -0.12
          0 -0.03 -0.12 0.01 -0.04 -0.12 0.01 -0.03 -0.12 0.02 -0.04 -0.12
          0.02 -0.03 -0.12 0.03 -0.04 -0.12 0.03 -0.03 -0.12 0.04 -0.04 -0.12
          0.04 -0.03 -0.12 -0.04 -0.02 -0.12 -0.03 -0.02 -0.12 -0.02 -0.02 -0.12
          -0.01 -0.02 -0.12 0 -0.02 -0.12 0.01 -0.02 -0.12 0.02 -0.02 -0.12
          0.03 -0.02 -0.12 0.04 -0.02 -0.12 -0.04 -0.01 -0.12 -0.03 -0.01 -0.12
          -0.02 -0.01 -0.12 -0.01 -0.01 -0.12 0 -0.01 -0.12 0.01 -0.01 -0.12
          0.02 -0.01 -0.12 0.03 -0.01 -0.12 0.04 -0.01 -0.12 -0.04 0 -0.12
          -0.03 0 -0.12 -0.02 0 -0.12 -0.01 0 -0.12 0 0 -0.12
          0.01 0 -0.12 0.02 0 -0.12 0.03 0 -0.12 0.04 0 -0.12
          -0.04 0.01 -0.12 -0.03 0.01 -0.12 -0.02 0.01 -0.12 -0.01 0.01 -0.12
          0 0.01 -0.12 0.01 0.01 -0.12 0.02 0.01 -0.12 0.03 0.01 -0.12
          0.04 0.01 -0.12 -0.04 0.02 -0.12 -0.03 0.02 -0.12 -0.02 0.02 -0.12
          -0.01 0.02 -0.12 0 0.02 -0.12 0.01 0.02 -0.12 0.02 0.02 -0.12
          0.03 0.02 -0.12 0.04 0.02 -0.12 -0.04 0.03 -0.12 -0.03 0.03 -0.12
          -0.02 0.03 -0.12 -0.01 0.03 -0.12 0 0.03 -0.12 0.01 0.03 -0.12
          0.02 0.03 -0.12 0.03 0.03 -0.12 0.04 0.03 -0.12 -0.04 0.04 -0.12
          -0.03 0.04 -0.12 -0.02 0.04 -0.12 -0.01 0.04 -0.12 0 0.04 -0.12
          0.01 0.04 -0.12 0.02 0.04 -0.12 0.03 0.04 -0.12 0.04 0.04 -0.12
          -0.04 -0.04 -0.11 -0.03 -0.04 -0.11 -0.04 -0.03 -0.11 -0.03 -0.03 -0.11
          -0.02 -0.04 -0.11 -0.02 -0.03 -0.11 -0.01 -0.04 -0.11 -0.01 -0.03 -0.11
          0 -0.04 -0.11 0 -0.03 -0.11 0.01 -0.04 -0.11 0.01 -0.03 -0.11
          0.02 -0.04 -0.11 0.02 -0.03 -0.11 0.03 -0.04 -0.11 0.03 -0.03 -0.11
          0.04 -0.04 -0.11 0.04 -0.03 -0.11 -0.04 -0.02 -0.11 -0.03 -0.02 -0.11
          -0.02 -0.02 -0.11 -0.01 -0.02 -0.11 0 -0.02 -0.11 0.01 -0.02 -0.11
          0.02 -0.02 -0.11 0.03 -0.02 -0.11 0.04 -0.02 -0.11 -0.04 -0.01 -0.11
          -0.03 -0.01 -0.11 -0.02 -0.01 -0.11 -0.01 -0.01 -0.11 0 -0.01 -0.11
          0.01 -0.01 -0.11 0.02 -0.01 -0.11 0.03 -0.01 -0.11 0.04 -0.01 -0.11
          -0.04 0 -0.11 -0.03 0 -0.11 -0.02 0 -0.11 -0.01 0 -0.11
          0 0 -0.11 0.01 0 -0.11 0.02 0 -0.11 0.03 0 -0.11
          0.04 0 -0.11 -0.04 0.01 -0.11 -0.03 0.01 -0.11 -0.02 0.01 -0.11
          -0.01 0.01 -0.11 0 0.01 -0.11 0.01 0.01 -0.11 0.02 0.01 -0.11
          0.03 0.01 -0.11 0.04 0.01 -0.11 -0.04 0.02 -0.11 -0.03 0.02 -0.11
          -0.02 0.02 -0.11 -0.01 0.02 -0.11 0 0.02 -0.11 0.01 0.02 -0.11
          0.02 0.02 -0.11 0.03 0.02 -0.11 0.04 0.02 -0.11 -0.04 0.03 -0.11
          -0.03 0.03 -0.11 -0.02 0.03 -0.11 -0.01 0.03 -0.11 0 0.03 -0.11
          0.01 0.03 -0.11 0.02 0.03 -0.11 0.03 0.03 -0.11 0.04 0.03 -0.11
          -0.04 0.04 -0.11 -0.03 0.04 -0.11 -0.02 0.04 -0.11 -0.01 0.04 -0.11
          0 0.04 -0.11 0.01 0.04 -0.11 0.02 0.04 -0.11 0.03 0.04 -0.11
          0.04 0.04 -0.11 -0.04 -0.04 -0.1 -0.03 -0.04 -0.1 -0.04 -0.03 -0.1
          -0.03 -0.03 -0.1 -0.02 -0.04 -0.1 -0.02 -0.03 -0.1 -0.01 -0.04 -0.1
          -0.01 -0.03 -0.1 0 -0.04 -0.1 0 -0.03 -0.1 0.01 -0.04 -0.1
          0.01 -0.03 -0.1 0.02 -0.04 -0.1 0.02 -0.03 -0.1 0.03 -0.04 -0.1
          0.03 -0.03 -0.1 0.04 -0.04 -0.1 0.04 -0.03 -0.1 -0.04 -0.02 -0.1
          -0.03 -0.02 -0.1 -0.02 -0.02 -0.1 -0.01 -0.02 -0.1 0 -0.02 -0.1
          0.01 -0.02 -0.1 0.02 -0.02 -0.1 0.03 -0.02 -0.1 0.04 -0.02 -0.1
          -0.04 -0.01 -0.1 -0.03 -0.01 -0.1 -0.02 -0.01 -0.1 -0.01 -0.01 -0.1
          0 -0.01 -0.1 0.01 -0.01 -0.1 0.02 -0.01 -0.1 0.03 -0.01 -0.1
          0.04 -0.01 -0.1 -0.04 0 -0.1 -0.03 0 -0.1 -0.02 0 -0.1
          -0.01 0 -0.1 0 0 -0.1 0.01 0 -0.1 0.02 0 -0.1
          0.03 0 -0.1 0.04 0 -0.1 -0.04 0.01 -0.1 -0.03 0.01 -0.1
          -0.02 0.01 -0.1 -0.01 0.01 -0.1 0 0.01 -0.1 0.01 0.01 -0.1
          0.02 0.01 -0.1 0.03 0.01 -0.1 0.04 0.01 -0.1 -0.04 0.02 -0.1
          -0.03 0.02 -0.1 -0.02 0.02 -0.1 -0.01 0.02 -0.1 0 0.02 -0.1
          0.01 0.02 -0.1 0.02 0.02 -0.1 0.03 0.02 -0.1 0.04 0.02 -0.1
          -0.04 0.03 -0.1 -0.03 0.03 -0.1 -0.02 0.03 -0.1 -0.01 0.03 -0.1