<?xml version="1.0"?>
<VTKFile type="UnstructuredGrid" version="0.1" byte_order="LittleEndian">
  <UnstructuredGrid>
    <Piece NumberOfCells="1600" NumberOfPoints="3362">
      <CellData Scalars="p (Pa)">
        <DataArray type="Float32" Name="p (Pa)" NumberOfComponents="1" format="ascii">
          -1.10587e+06 -1.10598e+06 -1.10621e+06 -1.10655e+06 -1.10699e+06 -1.10753e+06 -1.10814e+06 -1.10882e+06 -1.10956e+06 -1.11032e+06 -1.1111e+06 -1.11187e+06
          -1.11261e+06 -1.1133e+06 -1.11391e+06 -1.11442e+06 -1.11482e+06 -1.11508e+06 -1.1152e+06 -1.11517e+06 -1.11498e+06 -1.11464e+06 -1.11416e+06 -1.11355e+06
          -1.11282e+06 -1.112e+06 -1.1111e+06 -1.11015e+06 -1.10917e+06 -1.10819e+06 -1.10722e+06 -1.1063e+06 -1.10542e+06 -1.10462e+06 -1.10391e+06 -1.1033e+06
          -1.10279e+06 -1.10241e+06 -1.10215e+06 -1.10202e+06 -1.10598e+06 -1.1061e+06 -1.10634e+06 -1.10668e+06 -1.10713e+06 -1.10768e+06 -1.10831e+06 -1.10901e+06
          -1.10976e+06 -1.11055e+06 -1.11135e+06 -1.11214e+06 -1.11291e+06 -1.11361e+06 -1.11425e+06 -1.11478e+06 -1.11519e+06 -1.11546e+06 -1.11559e+06 -1.11556e+06
          -1.11537e+06 -1.11503e+06 -1.11453e+06 -1.1139e+06 -1.11315e+06 -1.11231e+06 -1.11139e+06 -1.11041e+06 -1.10941e+06 -1.10841e+06 -1.10742e+06 -1.10647e+06
          -1.10558e+06 -1.10477e+06 -1.10404e+06 -1.10342e+06 -1.10291e+06 -1.10252e+06 -1.10225e+06 -1.10212e+06 -1.10621e+06 -1.10634e+06 -1.10658e+06 -1.10694e+06
          -1.10741e+06 -1.10798e+06 -1.10864e+06 -1.10937e+06 -1.11016e+06 -1.11099e+06 -1.11184e+06 -1.11268e+06 -1.11349e+06 -1.11424e+06 -1.11492e+06 -1.11549e+06
          -1.11593e+06 -1.11624e+06 -1.11638e+06 -1.11635e+06 -1.11616e+06 -1.11579e+06 -1.11527e+06 -1.11461e+06 -1.11382e+06 -1.11293e+06 -1.11196e+06 -1.11094e+06
          -1.1099e+06 -1.10885e+06 -1.10782e+06 -1.10683e+06 -1.1059e+06 -1.10506e+06 -1.1043e+06 -1.10366e+06 -1.10313e+06 -1.10272e+06 -1.10245e+06 -1.10231e+06
          -1.10655e+06 -1.10668e+06 -1.10694e+06 -1.10733e+06 -1.10782e+06 -1.10843e+06 -1.10913e+06 -1.10992e+06 -1.11077e+06 -1.11166e+06 -1.11257e+06 -1.11348e+06
          -1.11437e+06 -1.11519e+06 -1.11594e+06 -1.11657e+06 -1.11706e+06 -1.1174e+06 -1.11757e+06 -1.11755e+06 -1.11735e+06 -1.11696e+06 -1.1164e+06 -1.11568e+06
          -1.11483e+06 -1.11387e+06 -1.11283e+06 -1.11174e+06 -1.11062e+06 -1.1095e+06 -1.1084e+06 -1.10736e+06 -1.10638e+06 -1.10548e+06 -1.10469e+06 -1.10401e+06
          -1.10346e+06 -1.10303e+06 -1.10275e+06 -1.1026e+06 -1.10699e+06 -1.10713e+06 -1.10741e+06 -1.10782e+06 -1.10836e+06 -1.10902e+06 -1.10978e+06 -1.11063e+06
          -1.11156e+06 -1.11254e+06 -1.11355e+06 -1.11456e+06 -1.11554e+06 -1.11647e+06 -1.11731e+06 -1.11802e+06 -1.11859e+06 -1.11899e+06 -1.11919e+06 -1.11918e+06
          -1.11897e+06 -1.11854e+06 -1.11793e+06 -1.11713e+06 -1.1162e+06 -1.11514e+06 -1.114e+06 -1.1128e+06 -1.11158e+06 -1.11036e+06 -1.10918e+06 -1.10805e+06
          -1.107e+06 -1.10604e+06 -1.1052e+06 -1.10447e+06 -1.10388e+06 -1.10343e+06 -1.10313e+06 -1.10298e+06 -1.10753e+06 -1.10768e+06 -1.10798e+06 -1.10843e+06
          -1.10902e+06 -1.10974e+06 -1.11057e+06 -1.11151e+06 -1.11254e+06 -1.11363e+06 -1.11476e+06 -1.1159e+06 -1.11701e+06 -1.11807e+06 -1.11904e+06 -1.11987e+06
          -1.12054e+06 -1.12101e+06 -1.12126e+06 -1.12127e+06 -1.12104e+06 -1.12056e+06 -1.11987e+06 -1.11898e+06 -1.11792e+06 -1.11673e+06 -1.11546e+06 -1.11412e+06
          -1.11277e+06 -1.11143e+06 -1.11014e+06 -1.1089e+06 -1.10776e+06 -1.10673e+06 -1.10581e+06 -1.10503e+06 -1.1044e+06 -1.10392e+06 -1.10359e+06 -1.10343e+06
          -1.10814e+06 -1.10831e+06 -1.10864e+06 -1.10913e+06 -1.10978e+06 -1.11057e+06 -1.1115e+06 -1.11255e+06 -1.1137e+06 -1.11492e+06 -1.1162e+06 -1.1175e+06
          -1.11879e+06 -1.12002e+06 -1.12115e+06 -1.12214e+06 -1.12294e+06 -1.12351e+06 -1.12382e+06 -1.12386e+06 -1.1236e+06 -1.12306e+06 -1.12226e+06 -1.12123e+06
          -1.12002e+06 -1.11867e+06 -1.11722e+06 -1.11571e+06 -1.1142e+06 -1.1127e+06 -1.11126e+06 -1.10991e+06 -1.10865e+06 -1.10752e+06 -1.10653e+06 -1.10568e+06
          -1.105e+06 -1.10448e+06 -1.10413e+06 -1.10395e+06 -1.10882e+06 -1.10901e+06 -1.10937e+06 -1.10992e+06 -1.11063e+06 -1.11151e+06 -1.11255e+06 -1.11372e+06
          -1.11502e+06 -1.11641e+06 -1.11787e+06 -1.11937e+06 -1.12087e+06 -1.12232e+06 -1.12366e+06 -1.12485e+06 -1.12582e+06 -1.12653e+06 -1.12692e+06 -1.12698e+06
          -1.12669e+06 -1.12607e+06 -1.12513e+06 -1.12393e+06 -1.12252e+06 -1.12095e+06 -1.11928e+06 -1.11756e+06 -1.11584e+06 -1.11416e+06 -1.11255e+06 -1.11105e+06
          -1.10966e+06 -1.10842e+06 -1.10733e+06 -1.10641e+06 -1.10566e+06 -1.1051e+06 -1.10472e+06 -1.10453e+06 -1.10956e+06 -1.10976e+06 -1.11016e+06 -1.11077e+06
          -1.11156e+06 -1.11254e+06 -1.1137e+06 -1.11502e+06 -1.11648e+06 -1.11807e+06 -1.11975e+06 -1.1215e+06 -1.12325e+06 -1.12497e+06 -1.12658e+06 -1.12803e+06
          -1.12923e+06 -1.13011e+06 -1.13063e+06 -1.13072e+06 -1.13039e+06 -1.12965e+06 -1.12853e+06 -1.1271e+06 -1.12543e+06 -1.12359e+06 -1.12164e+06 -1.11966e+06
          -1.1177e+06 -1.1158e+06 -1.11399e+06 -1.1123e+06 -1.11077e+06 -1.1094e+06 -1.1082e+06 -1.10719e+06 -1.10638e+06 -1.10576e+06 -1.10535e+06 -1.10514e+06
          -1.11032e+06 -1.11055e+06 -1.11099e+06 -1.11166e+06 -1.11254e+06 -1.11363e+06 -1.11492e+06 -1.11641e+06 -1.11807e+06 -1.11989e+06 -1.12183e+06 -1.12386e+06
          -1.12594e+06 -1.12799e+06 -1.12995e+06 -1.13172e+06 -1.13322e+06 -1.13435e+06 -1.13502e+06 -1.13517e+06 -1.13478e+06 -1.13388e+06 -1.13251e+06 -1.13078e+06
          -1.12878e+06 -1.12659e+06 -1.12431e+06 -1.12201e+06 -1.11975e+06 -1.11758e+06 -1.11554e+06 -1.11366e+06 -1.11195e+06 -1.11043e+06 -1.10912e+06 -1.10802e+06
          -1.10713e+06 -1.10646e+06 -1.10601e+06 -1.10579e+06 -1.1111e+06 -1.11135e+06 -1.11184e+06 -1.11257e+06 -1.11355e+06 -1.11476e+06 -1.1162e+06 -1.11787e+06
          -1.11975e+06 -1.12183e+06 -1.12407e+06 -1.12645e+06 -1.12891e+06 -1.13137e+06 -1.13377e+06 -1.13598e+06 -1.13787e+06 -1.13933e+06 -1.14021e+06 -1.14044e+06
          -1.13997e+06 -1.13885e+06 -1.13715e+06 -1.13502e+06 -1.13258e+06 -1.12995e+06 -1.12726e+06 -1.12457e+06 -1.12197e+06 -1.1195e+06 -1.11719e+06 -1.11508e+06
          -1.11319e+06 -1.11151e+06 -1.11007e+06 -1.10886e+06 -1.10789e+06 -1.10717e+06 -1.10668e+06 -1.10644e+06 -1.11187e+06 -1.11214e+06 -1.11268e+06 -1.11348e+06
          -1.11456e+06 -1.1159e+06 -1.1175e+06 -1.11937e+06 -1.1215e+06 -1.12386e+06 -1.12645e+06 -1.12923e+06 -1.13214e+06 -1.13512e+06 -1.13806e+06 -1.14083e+06
          -1.14327e+06 -1.14518e+06 -1.14637e+06 -1.1467e+06 -1.14612e+06 -1.14469e+06 -1.14254e+06 -1.13986e+06 -1.13685e+06 -1.13368e+06 -1.13047e+06 -1.12732e+06
          -1.12432e+06 -1.1215e+06 -1.1189e+06 -1.11654e+06 -1.11444e+06 -1.1126e+06 -1.11102e+06 -1.1097e+06 -1.10865e+06 -1.10787e+06 -1.10734e+06 -1.10708e+06
          -1.11261e+06 -1.11291e+06 -1.11349e+06 -1.11437e+06 -1.11554e+06 -1.11701e+06 -1.11879e+06 -1.12087e+06 -1.12325e+06 -1.12594e+06 -1.12891e+06 -1.13214e+06
          -1.13559e+06 -1.13919e+06 -1.14282e+06 -1.14634e+06 -1.14951e+06 -1.15207e+06 -1.15372e+06 -1.15422e+06 -1.15347e+06 -1.15157e+06 -1.14877e+06 -1.14535e+06
          -1.1416e+06 -1.13773e+06 -1.1339e+06 -1.13021e+06 -1.12675e+06 -1.12354e+06 -1.12062e+06 -1.118e+06 -1.11568e+06 -1.11367e+06 -1.11195e+06 -1.11052e+06
          -1.10939e+06 -1.10854e+06 -1.10798e+06 -1.1077e+06 -1.1133e+06 -1.11361e+06 -1.11424e+06 -1.11519e+06 -1.11647e+06 -1.11807e+06 -1.12002e+06 -1.12232e+06
          -1.12497e+06 -1.12799e+06 -1.13137e+06 -1.13512e+06 -1.13919e+06 -1.14353e+06 -1.14804e+06 -1.15252e+06 -1.15672e+06 -1.16023e+06 -1.16258e+06 -1.16335e+06
          -1.16233e+06 -1.15972e+06 -1.15596e+06 -1.15152e+06 -1.1468e+06 -1.14205e+06 -1.13747e+06 -1.13317e+06 -1.12919e+06 -1.12557e+06 -1.12231e+06 -1.11942e+06
          -1.11688e+06 -1.11468e+06 -1.11282e+06 -1.11129e+06 -1.11007e+06 -1.10916e+06 -1.10856e+06 -1.10826e+06 -1.11391e+06 -1.11425e+06 -1.11492e+06 -1.11594e+06
          -1.11731e+06 -1.11904e+06 -1.12115e+06 -1.12366e+06 -1.12658e+06 -1.12995e+06 -1.13377e+06 -1.13806e+06 -1.14282e+06 -1.14804e+06 -1.15361e+06 -1.15937e+06
          -1.165e+06 -1.16995e+06 -1.17346e+06 -1.1747e+06 -1.1732e+06 -1.16943e+06 -1.16423e+06 -1.15836e+06 -1.15235e+06 -1.14654e+06 -1.14109e+06 -1.13609e+06
          -1.13156e+06 -1.1275e+06 -1.1239e+06 -1.12073e+06 -1.11797e+06 -1.11561e+06 -1.11361e+06 -1.11198e+06 -1.11068e+06 -1.10972e+06 -1.10908e+06 -1.10876e+06
          -1.11442e+06 -1.11478e+06 -1.11549e+06 -1.11657e+06 -1.11802e+06 -1.11987e+06 -1.12214e+06 -1.12485e+06 -1.12803e+06 -1.13172e+06 -1.13598e+06 -1.14083e+06
          -1.14634e+06 -1.15252e+06 -1.15937e+06 -1.16677e+06 -1.1744e+06 -1.18159e+06 -1.18713e+06 -1.1893e+06 -1.18686e+06 -1.18107e+06 -1.17362e+06 -1.16574e+06
          -1.1581e+06 -1.15101e+06 -1.14458e+06 -1.13884e+06 -1.13375e+06 -1.12925e+06 -1.12532e+06 -1.12189e+06 -1.11893e+06 -1.11641e+06 -1.11429e+06 -1.11256e+06
          -1.1112e+06 -1.11018e+06 -1.10951e+06 -1.10918e+06 -1.11482e+06 -1.11519e+06 -1.11593e+06 -1.11706e+06 -1.11859e+06 -1.12054e+06 -1.12294e+06 -1.12582e+06
          -1.12923e+06 -1.13322e+06 -1.13787e+06 -1.14327e+06 -1.14951e+06 -1.15672e+06 -1.165e+06 -1.1744e+06 -1.18479e+06 -1.19552e+06 -1.20483e+06 -1.2092e+06
          -1.20455e+06 -1.19497e+06 -1.18399e+06 -1.17336e+06 -1.16371e+06 -1.15519e+06 -1.14774e+06 -1.14126e+06 -1.13563e+06 -1.13074e+06 -1.1265e+06 -1.12284e+06
          -1.11971e+06 -1.11705e+06 -1.11483e+06 -1.11302e+06 -1.1116e+06 -1.11054e+06 -1.10985e+06 -1.1095e+06 -1.11508e+06 -1.11546e+06 -1.11624e+06 -1.1174e+06
          -1.11899e+06 -1.12101e+06 -1.12351e+06 -1.12653e+06 -1.13011e+06 -1.13435e+06 -1.13933e+06 -1.14518e+06 -1.15207e+06 -1.16023e+06 -1.16995e+06 -1.18159e+06
          -1.19552e+06 -1.21169e+06 -1.22847e+06 -1.23921e+06 -1.22818e+06 -1.21113e+06 -1.1947e+06 -1.18054e+06 -1.16865e+06 -1.15868e+06 -1.15029e+06 -1.14316e+06
          -1.13707e+06 -1.13185e+06 -1.12737e+06 -1.12353e+06 -1.12026e+06 -1.1175e+06 -1.1152e+06 -1.11333e+06 -1.11186e+06 -1.11078e+06 -1.11007e+06 -1.10971e+06
          -1.1152e+06 -1.11559e+06 -1.11638e+06 -1.11757e+06 -1.11919e+06 -1.12126e+06 -1.12382e+06 -1.12692e+06 -1.13063e+06 -1.13502e+06 -1.14021e+06 -1.14637e+06
          -1.15372e+06 -1.16258e+06 -1.17346e+06 -1.18713e+06 -1.20483e+06 -1.22847e+06 -1.25993e+06 -1.29327e+06 -1.25964e+06 -1.2279e+06 -1.20401e+06 -1.18606e+06
          -1.17215e+06 -1.16104e+06 -1.15193e+06 -1.14435e+06 -1.13795e+06 -1.13251e+06 -1.12788e+06 -1.12392e+06 -1.12057e+06 -1.11774e+06 -1.11539e+06 -1.11348e+06
          -1.11199e+06 -1.11089e+06 -1.11016e+06 -1.1098e+06 -1.11517e+06 -1.11556e+06 -1.11635e+06 -1.11755e+06 -1.11918e+06 -1.12127e+06 -1.12386e+06 -1.12698e+06
          -1.13072e+06 -1.13517e+06 -1.14044e+06 -1.1467e+06 -1.15422e+06 -1.16335e+06 -1.1747e+06 -1.1893e+06 -1.2092e+06 -1.23921e+06 -1.29327e+06 -1.42345e+06
          -1.29296e+06 -1.23864e+06 -1.20838e+06 -1.18823e+06 -1.17339e+06 -1.1618e+06 -1.15243e+06 -1.14468e+06 -1.13817e+06 -1.13266e+06 -1.12797e+06 -1.12398e+06
          -1.1206e+06 -1.11775e+06 -1.11538e+06 -1.11346e+06 -1.11196e+06 -1.11085e+06 -1.11012e+06 -1.10976e+06 -1.11498e+06 -1.11537e+06 -1.11616e+06 -1.11735e+06
          -1.11897e+06 -1.12104e+06 -1.1236e+06 -1.12669e+06 -1.13039e+06 -1.13478e+06 -1.13997e+06 -1.14612e+06 -1.15347e+06 -1.16233e+06 -1.1732e+06 -1.18686e+06
          -1.20455e+06 -1.22818e+06 -1.25964e+06 -1.29296e+06 -1.25934e+06 -1.22762e+06 -1.20373e+06 -1.1858e+06 -1.1719e+06 -1.16079e+06 -1.15169e+06 -1.14411e+06
          -1.13771e+06 -1.13228e+06 -1.12765e+06 -1.1237e+06 -1.12035e+06 -1.11752e+06 -1.11518e+06 -1.11327e+06 -1.11178e+06 -1.11068e+06 -1.10995e+06 -1.10959e+06
          -1.11464e+06 -1.11503e+06 -1.11579e+06 -1.11696e+06 -1.11854e+06 -1.12056e+06 -1.12306e+06 -1.12607e+06 -1.12965e+06 -1.13388e+06 -1.13885e+06 -1.14469e+06
          -1.15157e+06 -1.15972e+06 -1.16943e+06 -1.18107e+06 -1.19497e+06 -1.21113e+06 -1.2279e+06 -1.23864e+06 -1.22762e+06 -1.21058e+06 -1.19417e+06 -1.18001e+06
          -1.16814e+06 -1.15819e+06 -1.1498e+06 -1.14268e+06 -1.1366e+06 -1.13139e+06 -1.12692e+06 -1.12309e+06 -1.11982e+06 -1.11707e+06 -1.11477e+06 -1.11291e+06
          -1.11144e+06 -1.11036e+06 -1.10965e+06 -1.10929e+06 -1.11416e+06 -1.11453e+06 -1.11527e+06 -1.1164e+06 -1.11793e+06 -1.11987e+06 -1.12226e+06 -1.12513e+06
          -1.12853e+06 -1.13251e+06 -1.13715e+06 -1.14254e+06 -1.14877e+06 -1.15596e+06 -1.16423e+06 -1.17362e+06 -1.18399e+06 -1.1947e+06 -1.20401e+06 -1.20838e+06
          -1.20373e+06 -1.19417e+06 -1.1832e+06 -1.17258e+06 -1.16295e+06 -1.15444e+06 -1.14701e+06 -1.14055e+06 -1.13493e+06 -1.13005e+06 -1.12582e+06 -1.12217e+06
          -1.11905e+06 -1.1164e+06 -1.11419e+06 -1.11238e+06 -1.11097e+06 -1.10992e+06 -1.10922e+06 -1.10888e+06 -1.11355e+06 -1.1139e+06 -1.11461e+06 -1.11568e+06
          -1.11713e+06 -1.11898e+06 -1.12123e+06 -1.12393e+06 -1.1271e+06 -1.13078e+06 -1.13502e+06 -1.13986e+06 -1.14535e+06 -1.15152e+06 -1.15836e+06 -1.16574e+06
          -1.17336e+06 -1.18054e+06 -1.18606e+06 -1.18823e+06 -1.1858e+06 -1.18001e+06 -1.17258e+06 -1.16472e+06 -1.1571e+06 -1.15003e+06 -1.14362e+06 -1.13789e+06
          -1.13282e+06 -1.12834e+06 -1.12442e+06 -1.121e+06 -1.11806e+06 -1.11554e+06 -1.11344e+06 -1.11172e+06 -1.11036e+06 -1.10935e+06 -1.10868e+06 -1.10835e+06
          -1.11282e+06 -1.11315e+06 -1.11382e+06 -1.11483e+06 -1.1162e+06 -1.11792e+06 -1.12002e+06 -1.12252e+06 -1.12543e+06 -1.12878e+06 -1.13258e+06 -1.13685e+06
          -1.1416e+06 -1.1468e+06 -1.15235e+06 -1.1581e+06 -1.16371e+06 -1.16865e+06 -1.17215e+06 -1.17339e+06 -1.1719e+06 -1.16814e+06 -1.16295e+06 -1.1571e+06
          -1.15111e+06 -1.14532e+06 -1.13989e+06 -1.13491e+06 -1.1304e+06 -1.12636e+06 -1.12278e+06 -1.11962e+06 -1.11688e+06 -1.11453e+06 -1.11255e+06 -1.11092e+06
          -1.10964e+06 -1.10868e+06 -1.10805e+06 -1.10773e+06 -1.112e+06 -1.11231e+06 -1.11293e+06 -1.11387e+06 -1.11514e+06 -1.11673e+06 -1.11867e+06 -1.12095e+06
          -1.12359e+06 -1.12659e+06 -1.12995e+06 -1.13368e+06 -1.13773e+06 -1.14205e+06 -1.14654e+06 -1.15101e+06 -1.15519e+06 -1.15868e+06 -1.16104e+06 -1.1618e+06
          -1.16079e+06 -1.15819e+06 -1.15444e+06 -1.15003e+06 -1.14532e+06 -1.1406e+06 -1.13604e+06 -1.13176e+06 -1.1278e+06 -1.1242e+06 -1.12097e+06 -1.11809e+06
          -1.11557e+06 -1.11339e+06 -1.11155e+06 -1.11003e+06 -1.10882e+06 -1.10792e+06 -1.10733e+06 -1.10703e+06 -1.1111e+06 -1.11139e+06 -1.11196e+06 -1.11283e+06
          -1.114e+06 -1.11546e+06 -1.11722e+06 -1.11928e+06 -1.12164e+06 -1.12431e+06 -1.12726e+06 -1.13047e+06 -1.1339e+06 -1.13747e+06 -1.14109e+06 -1.14458e+06
          -1.14774e+06 -1.15029e+06 -1.15193e+06 -1.15243e+06 -1.15169e+06 -1.1498e+06 -1.14701e+06 -1.14362e+06 -1.13989e+06 -1.13604e+06 -1.13223e+06 -1.12858e+06
          -1.12514e+06 -1.12196e+06 -1.11906e+06 -1.11647e+06 -1.11417e+06 -1.11217e+06 -1.11047e+06 -1.10906e+06 -1.10794e+06 -1.1071e+06 -1.10654e+06 -1.10626e+06
          -1.11015e+06 -1.11041e+06 -1.11094e+06 -1.11174e+06 -1.1128e+06 -1.11412e+06 -1.11571e+06 -1.11756e+06 -1.11966e+06 -1.12201e+06 -1.12457e+06 -1.12732e+06
          -1.13021e+06 -1.13317e+06 -1.13609e+06 -1.13884e+06 -1.14126e+06 -1.14316e+06 -1.14435e+06 -1.14468e+06 -1.14411e+06 -1.14268e+06 -1.14055e+06 -1.13789e+06
          -1.13491e+06 -1.13176e+06 -1.12858e+06 -1.12546e+06 -1.12248e+06 -1.11969e+06 -1.11712e+06 -1.1148e+06 -1.11272e+06 -1.1109e+06 -1.10934e+06 -1.10804e+06
          -1.107e+06 -1.10623e+06 -1.10571e+06 -1.10545e+06 -1.10917e+06 -1.10941e+06 -1.1099e+06 -1.11062e+06 -1.11158e+06 -1.11277e+06 -1.1142e+06 -1.11584e+06
          -1.1177e+06 -1.11975e+06 -1.12197e+06 -1.12432e+06 -1.12675e+06 -1.12919e+06 -1.13156e+06 -1.13375e+06 -1.13563e+06 -1.13707e+06 -1.13795e+06 -1.13817e+06
          -1.13771e+06 -1.1366e+06 -1.13493e+06 -1.13282e+06 -1.1304e+06 -1.1278e+06 -1.12514e+06 -1.12248e+06 -1.11991e+06 -1.11747e+06 -1.1152e+06 -1.11312e+06
          -1.11125e+06 -1.1096e+06 -1.10818e+06 -1.107e+06 -1.10604e+06 -1.10533e+06 -1.10485e+06 -1.10461e+06 -1.10819e+06 -1.10841e+06 -1.10885e+06 -1.1095e+06
          -1.11036e+06 -1.11143e+06 -1.1127e+06 -1.11416e+06 -1.1158e+06 -1.11758e+06 -1.1195e+06 -1.1215e+06 -1.12354e+06 -1.12557e+06 -1.1275e+06 -1.12925e+06
          -1.13074e+06 -1.13185e+06 -1.13251e+06 -1.13266e+06 -1.13228e+06 -1.13139e+06 -1.13005e+06 -1.12834e+06 -1.12636e+06 -1.1242e+06 -1.12196e+06 -1.11969e+06
          -1.11747e+06 -1.11534e+06 -1.11334e+06 -1.11149e+06 -1.10981e+06 -1.10833e+06 -1.10704e+06 -1.10596e+06 -1.10508e+06 -1.10443e+06 -1.10399e+06 -1.10377e+06
          -1.10722e+06 -1.10742e+06 -1.10782e+06 -1.1084e+06 -1.10918e+06 -1.11014e+06 -1.11126e+06 -1.11255e+06 -1.11399e+06 -1.11554e+06 -1.11719e+06 -1.1189e+06
          -1.12062e+06 -1.12231e+06 -1.1239e+06 -1.12532e+06 -1.1265e+06 -1.12737e+06 -1.12788e+06 -1.12797e+06 -1.12765e+06 -1.12692e+06 -1.12582e+06 -1.12442e+06
          -1.12278e+06 -1.12097e+06 -1.11906e+06 -1.11712e+06 -1.1152e+06 -1.11334e+06 -1.11157e+06 -1.10993e+06 -1.10843e+06 -1.10709e+06 -1.10592e+06 -1.10494e+06
          -1.10414e+06 -1.10354e+06 -1.10314e+06 -1.10294e+06 -1.1063e+06 -1.10647e+06 -1.10683e+06 -1.10736e+06 -1.10805e+06 -1.1089e+06 -1.10991e+06 -1.11105e+06
          -1.1123e+06 -1.11366e+06 -1.11508e+06 -1.11654e+06 -1.118e+06 -1.11942e+06 -1.12073e+06 -1.12189e+06 -1.12284e+06 -1.12353e+06 -1.12392e+06 -1.12398e+06
          -1.1237e+06 -1.12309e+06 -1.12217e+06 -1.121e+06 -1.11962e+06 -1.11809e+06 -1.11647e+06 -1.1148e+06 -1.11312e+06 -1.11149e+06 -1.10993e+06 -1.10846e+06
          -1.10712e+06 -1.10591e+06 -1.10486e+06 -1.10396e+06 -1.10324e+06 -1.10269e+06 -1.10233e+06 -1.10214e+06 -1.10542e+06 -1.10558e+06 -1.1059e+06 -1.10638e+06
          -1.107e+06 -1.10776e+06 -1.10865e+06 -1.10966e+06 -1.11077e+06 -1.11195e+06 -1.11319e+06 -1.11444e+06 -1.11568e+06 -1.11688e+06 -1.11797e+06 -1.11893e+06
          -1.11971e+06 -1.12026e+06 -1.12057e+06 -1.1206e+06 -1.12035e+06 -1.11982e+06 -1.11905e+06 -1.11806e+06 -1.11688e+06 -1.11557e+06 -1.11417e+06 -1.11272e+06
          -1.11125e+06 -1.10981e+06 -1.10843e+06 -1.10712e+06 -1.10591e+06 -1.10482e+06 -1.10387e+06 -1.10306e+06 -1.1024e+06 -1.1019e+06 -1.10156e+06 -1.10139e+06
          -1.10462e+06 -1.10477e+06 -1.10506e+06 -1.10548e+06 -1.10604e+06 -1.10673e+06 -1.10752e+06 -1.10842e+06 -1.1094e+06 -1.11043e+06 -1.11151e+06 -1.1126e+06
          -1.11367e+06 -1.11468e+06 -1.11561e+06 -1.11641e+06 -1.11705e+06 -1.1175e+06 -1.11774e+06 -1.11775e+06 -1.11752e+06 -1.11707e+06 -1.1164e+06 -1.11554e+06
          -1.11453e+06 -1.11339e+06 -1.11217e+06 -1.1109e+06 -1.1096e+06 -1.10833e+06 -1.10709e+06 -1.10591e+06 -1.10482e+06 -1.10384e+06 -1.10297e+06 -1.10223e+06
          -1.10162e+06 -1.10116e+06 -1.10085e+06 -1.1007e+06 -1.10391e+06 -1.10404e+06 -1.1043e+06 -1.10469e+06 -1.1052e+06 -1.10581e+06 -1.10653e+06 -1.10733e+06
          -1.1082e+06 -1.10912e+06 -1.11007e+06 -1.11102e+06 -1.11195e+06 -1.11282e+06 -1.11361e+06 -1.11429e+06 -1.11483e+06 -1.1152e+06 -1.11539e+06 -1.11538e+06
          -1.11518e+06 -1.11477e+06 -1.11419e+06 -1.11344e+06 -1.11255e+06 -1.11155e+06 -1.11047e+06 -1.10934e+06 -1.10818e+06 -1.10704e+06 -1.10592e+06 -1.10486e+06
          -1.10387e+06 -1.10297e+06 -1.10217e+06 -1.10149e+06 -1.10093e+06 -1.10051e+06 -1.10023e+06 -1.10008e+06 -1.1033e+06 -1.10342e+06 -1.10366e+06 -1.10401e+06
          -1.10447e+06 -1.10503e+06 -1.10568e+06 -1.10641e+06 -1.10719e+06 -1.10802e+06 -1.10886e+06 -1.1097e+06 -1.11052e+06 -1.11129e+06 -1.11198e+06 -1.11256e+06
          -1.11302e+06 -1.11333e+06 -1.11348e+06 -1.11346e+06 -1.11327e+06 -1.11291e+06 -1.11238e+06 -1.11172e+06 -1.11092e+06 -1.11003e+06 -1.10906e+06 -1.10804e+06
          -1.107e+06 -1.10596e+06 -1.10494e+06 -1.10396e+06 -1.10306e+06 -1.10223e+06 -1.10149e+06 -1.10086e+06 -1.10034e+06 -1.09995e+06 -1.09969e+06 -1.09955e+06
          -1.10279e+06 -1.10291e+06 -1.10313e+06 -1.10346e+06 -1.10388e+06 -1.1044e+06 -1.105e+06 -1.10566e+06 -1.10638e+06 -1.10713e+06 -1.10789e+06 -1.10865e+06
          -1.10939e+06 -1.11007e+06 -1.11068e+06 -1.1112e+06 -1.1116e+06 -1.11186e+06 -1.11199e+06 -1.11196e+06 -1.11178e+06 -1.11144e+06 -1.11097e+06 -1.11036e+06
          -1.10964e+06 -1.10882e+06 -1.10794e+06 -1.107e+06 -1.10604e+06 -1.10508e+06 -1.10414e+06 -1.10324e+06 -1.1024e+06 -1.10162e+06 -1.10093e+06 -1.10034e+06
          -1.09986e+06 -1.09949e+06 -1.09924e+06 -1.09912e+06 -1.10241e+06 -1.10252e+06 -1.10272e+06 -1.10303e+06 -1.10343e+06 -1.10392e+06 -1.10448e+06 -1.1051e+06
          -1.10576e+06 -1.10646e+06 -1.10717e+06 -1.10787e+06 -1.10854e+06 -1.10916e+06 -1.10972e+06 -1.11018e+06 -1.11054e+06 -1.11078e+06 -1.11089e+06 -1.11085e+06
          -1.11068e+06 -1.11036e+06 -1.10992e+06 -1.10935e+06 -1.10868e+06 -1.10792e+06 -1.1071e+06 -1.10623e+06 -1.10533e+06 -1.10443e+06 -1.10354e+06 -1.10269e+06
          -1.1019e+06 -1.10116e+06 -1.10051e+06 -1.09995e+06 -1.09949e+06 -1.09914e+06 -1.0989e+06 -1.09878e+06 -1.10215e+06 -1.10225e+06 -1.10245e+06 -1.10275e+06
          -1.10313e+06 -1.10359e+06 -1.10413e+06 -1.10472e+06 -1.10535e+06 -1.10601e+06 -1.10668e+06 -1.10734e+06 -1.10798e+06 -1.10856e+06 -1.10908e+06 -1.10951e+06
          -1.10985e+06 -1.11007e+06 -1.11016e+06 -1.11012e+06 -1.10995e+06 -1.10965e+06 -1.10922e+06 -1.10868e+06 -1.10805e+06 -1.10733e+06 -1.10654e+06 -1.10571e+06
          -1.10485e+06 -1.10399e+06 -1.10314e+06 -1.10233e+06 -1.10156e+06 -1.10085e+06 -1.10023e+06 -1.09969e+06 -1.09924e+06 -1.0989e+06 -1.09867e+06 -1.09856e+06
          -1.10202e+06 -1.10212e+06 -1.10231e+06 -1.1026e+06 -1.10298e+06 -1.10343e+06 -1.10395e+06 -1.10453e+06 -1.10514e+06 -1.10579e+06 -1.10644e+06 -1.10708e+06
          -1.1077e+06 -1.10826e+06 -1.10876e+06 -1.10918e+06 -1.1095e+06 -1.10971e+06 -1.1098e+06 -1.10976e+06 -1.10959e+06 -1.10929e+06 -1.10888e+06 -1.10835e+06
          -1.10773e+06 -1.10703e+06 -1.10626e+06 -1.10545e+06 -1.10461e+06 -1.10377e+06 -1.10294e+06 -1.10214e+06 -1.10139e+06 -1.1007e+06 -1.10008e+06 -1.09955e+06
          -1.09912e+06 -1.09878e+06 -1.09856e+06 -1.09844e+06
        </DataArray>
        <DataArray type="Float32" Name="saturation" NumberOfComponents="1" format="ascii">
          0.285336 0.285334 0.285331 0.285326 0.285319 0.285311 0.285301 0.285291 0.28528 0.285268 0.285256 0.285245
          0.285233 0.285223 0.285214 0.285206 0.2852 0.285196 0.285194 0.285195 0.285197 0.285203 0.28521 0.285219
          0.28523 0.285243 0.285256 0.285271 0.285286 0.285301 0.285315 0.28533 0.285343 0.285355 0.285366 0.285376
          0.285383 0.285389 0.285393 0.285395 0.285334 0.285333 0.285329 0.285324 0.285317 0.285308 0.285299 0.285288
          0.285277 0.285265 0.285253 0.28524 0.285229 0.285218 0.285209 0.2852 0.285194 0.28519 0.285188 0.285189
          0.285191 0.285197 0.285204 0.285214 0.285225 0.285238 0.285252 0.285267 0.285282 0.285297 0.285312 0.285327
          0.285341 0.285353 0.285364 0.285374 0.285381 0.285388 0.285392 0.285394 0.285331 0.285329 0.285325 0.28532
          0.285313 0.285304 0.285294 0.285283 0.285271 0.285258 0.285245 0.285232 0.28522 0.285209 0.285198 0.28519
          0.285183 0.285178 0.285176 0.285177 0.28518 0.285185 0.285193 0.285203 0.285215 0.285228 0.285243 0.285259
          0.285275 0.285291 0.285306 0.285321 0.285336 0.285349 0.28536 0.28537 0.285378 0.285384 0.285388 0.285391
          0.285326 0.285324 0.28532 0.285314 0.285306 0.285297 0.285286 0.285274 0.285261 0.285248 0.285234 0.28522
          0.285207 0.285194 0.285183 0.285173 0.285166 0.285161 0.285158 0.285158 0.285161 0.285167 0.285176 0.285187
          0.2852 0.285214 0.28523 0.285247 0.285264 0.285281 0.285297 0.285313 0.285328 0.285342 0.285354 0.285365
          0.285373 0.28538 0.285384 0.285386 0.285319 0.285317 0.285313 0.285306 0.285298 0.285288 0.285276 0.285263
          0.285249 0.285234 0.285219 0.285204 0.285189 0.285175 0.285162 0.285151 0.285143 0.285137 0.285134 0.285134
          0.285137 0.285143 0.285153 0.285165 0.285179 0.285195 0.285212 0.285231 0.285249 0.285268 0.285286 0.285303
          0.285319 0.285333 0.285346 0.285358 0.285367 0.285373 0.285378 0.28538 0.285311 0.285308 0.285304 0.285297
          0.285288 0.285277 0.285264 0.28525 0.285234 0.285218 0.285201 0.285183 0.285167 0.285151 0.285136 0.285123
          0.285113 0.285106 0.285102 0.285102 0.285106 0.285113 0.285123 0.285137 0.285153 0.285171 0.28519 0.28521
          0.285231 0.285251 0.285271 0.28529 0.285307 0.285323 0.285337 0.285349 0.285359 0.285366 0.285371 0.285373
          0.285301 0.285299 0.285294 0.285286 0.285276 0.285264 0.28525 0.285234 0.285217 0.285198 0.285179 0.285159
          0.28514 0.285121 0.285104 0.285089 0.285077 0.285068 0.285064 0.285063 0.285067 0.285075 0.285087 0.285103
          0.285121 0.285142 0.285163 0.285186 0.285209 0.285232 0.285254 0.285275 0.285294 0.285311 0.285326 0.285339
          0.285349 0.285357 0.285363 0.285366 0.285291 0.285288 0.285283 0.285274 0.285263 0.28525 0.285234 0.285216
          0.285197 0.285176 0.285154 0.285131 0.285108 0.285087 0.285066 0.285048 0.285034 0.285023 0.285017 0.285016
          0.285021 0.28503 0.285044 0.285062 0.285083 0.285107 0.285132 0.285158 0.285184 0.28521 0.285234 0.285257
          0.285278 0.285297 0.285314 0.285328 0.285339 0.285348 0.285354 0.285357 0.28528 0.285277 0.285271 0.285261
          0.285249 0.285234 0.285217 0.285197 0.285175 0.285151 0.285125 0.285099 0.285072 0.285047 0.285022 0.285001
          0.284983 0.284969 0.284962 0.28496 0.284965 0.284976 0.284993 0.285015 0.28504 0.285067 0.285097 0.285126
          0.285156 0.285185 0.285212 0.285238 0.285261 0.285282 0.285301 0.285316 0.285328 0.285338 0.285344 0.285347
          0.285268 0.285265 0.285258 0.285248 0.285234 0.285218 0.285198 0.285176 0.285151 0.285123 0.285094 0.285063
          0.285032 0.285001 0.284972 0.284945 0.284923 0.284906 0.284896 0.284894 0.2849 0.284913 0.284934 0.284959
          0.284989 0.285022 0.285057 0.285091 0.285125 0.285158 0.285189 0.285217 0.285243 0.285266 0.285287 0.285303
          0.285317 0.285327 0.285334 0.285337 0.285256 0.285253 0.285245 0.285234 0.285219 0.285201 0.285179 0.285154
          0.285125 0.285094 0.28506 0.285024 0.284987 0.284951 0.284915 0.284882 0.284854 0.284832 0.284819 0.284816
          0.284823 0.284839 0.284864 0.284896 0.284933 0.284972 0.285012 0.285053 0.285092 0.285129 0.285164 0.285196
          0.285225 0.28525 0.285272 0.28529 0.285305 0.285316 0.285324 0.285327 0.285245 0.28524 0.285232 0.28522
          0.285204 0.285183 0.285159 0.285131 0.285099 0.285063 0.285024 0.284983 0.284939 0.284895 0.284851 0.28481
          0.284774 0.284746 0.284728 0.284723 0.284732 0.284753 0.284785 0.284824 0.284869 0.284916 0.284964 0.285011
          0.285056 0.285099 0.285138 0.285174 0.285206 0.285234 0.285258 0.285278 0.285294 0.285306 0.285314 0.285318
          0.285233 0.285229 0.28522 0.285207 0.285189 0.285167 0.28514 0.285108 0.285072 0.285032 0.284987 0.284939
          0.284888 0.284834 0.28478 0.284728 0.284682 0.284644 0.28462 0.284613 0.284624 0.284651 0.284693 0.284743
          0.284798 0.284856 0.284913 0.284968 0.28502 0.285068 0.285112 0.285152 0.285187 0.285217 0.285243 0.285265
          0.285282 0.285295 0.285304 0.285308 0.285223 0.285218 0.285209 0.285194 0.285175 0.285151 0.285121 0.285087
          0.285047 0.285001 0.284951 0.284895 0.284834 0.28477 0.284703 0.284637 0.284576 0.284525 0.28449 0.284479
          0.284494 0.284532 0.284587 0.284652 0.284722 0.284792 0.28486 0.284924 0.284983 0.285038 0.285087 0.28513
          0.285169 0.285202 0.28523 0.285253 0.285272 0.285286 0.285295 0.2853 0.285214 0.285209 0.285198 0.285183
          0.285162 0.285136 0.285104 0.285066 0.285022 0.284972 0.284915 0.284851 0.28478 0.284703 0.284621 0.284537
          0.284455 0.284384 0.284333 0.284315 0.284337 0.284391 0.284467 0.284552 0.28464 0.284725 0.284806 0.28488
          0.284948 0.285009 0.285063 0.28511 0.285152 0.285188 0.285218 0.285243 0.285263 0.285277 0.285287 0.285292
          0.285206 0.2852 0.28519 0.285173 0.285151 0.285123 0.285089 0.285048 0.285001 0.284945 0.284882 0.28481
          0.284728 0.284637 0.284537 0.28443 0.284319 0.284216 0.284137 0.284106 0.284141 0.284224 0.284331 0.284445
          0.284556 0.28466 0.284754 0.284839 0.284915 0.284982 0.285041 0.285093 0.285138 0.285176 0.285208 0.285234
          0.285255 0.28527 0.28528 0.285286 0.2852 0.285194 0.285183 0.285166 0.285143 0.285113 0.285077 0.285034
          0.284983 0.284923 0.284854 0.284774 0.284682 0.284576 0.284455 0.284319 0.284171 0.284018 0.283887 0.283826
          0.283891 0.284026 0.284182 0.284334 0.284474 0.284598 0.284708 0.284803 0.284887 0.28496 0.285024 0.285079
          0.285126 0.285166 0.2852 0.285227 0.285249 0.285265 0.285275 0.285281 0.285196 0.28519 0.285178 0.285161
          0.285137 0.285106 0.285068 0.285023 0.284969 0.284906 0.284832 0.284746 0.284644 0.284525 0.284384 0.284216
          0.284018 0.283791 0.283559 0.283412 0.283563 0.283799 0.28403 0.284231 0.284403 0.284547 0.28467 0.284775
          0.284866 0.284943 0.285011 0.285068 0.285117 0.285159 0.285194 0.285222 0.285245 0.285261 0.285272 0.285278
          0.285194 0.285188 0.285176 0.285158 0.285134 0.285102 0.285064 0.285017 0.284962 0.284896 0.284819 0.284728
          0.28462 0.28449 0.284333 0.284137 0.283887 0.283559 0.283131 0.28269 0.283135 0.283566 0.283899 0.284152
          0.284352 0.284513 0.284646 0.284758 0.284853 0.284934 0.285003 0.285062 0.285113 0.285156 0.285191 0.28522
          0.285243 0.28526 0.285271 0.285276 0.285195 0.285189 0.285177 0.285158 0.285134 0.285102 0.285063 0.285016
          0.28496 0.284894 0.284816 0.284723 0.284613 0.284479 0.284315 0.284106 0.283826 0.283412 0.28269 0.281072