<?xml version="1.0"?>
<VTKFile type="UnstructuredGrid" version="0.1" byte_order="LittleEndian">
  <UnstructuredGrid>
    <Piece NumberOfCells="1681" NumberOfPoints="3528">
      <CellData Scalars="p (Pa)">
        <DataArray type="Float32" Name="p (Pa)" NumberOfComponents="1" format="ascii">
          -1.10205e+06 -1.10216e+06 -1.10238e+06 -1.1027e+06 -1.10312e+06 -1.10363e+06 -1.10422e+06 -1.10487e+06 -1.10559e+06 -1.10635e+06 -1.10713e+06 -1.10792e+06
          -1.1087e+06 -1.10945e+06 -1.11015e+06 -1.11078e+06 -1.11132e+06 -1.11176e+06 -1.11209e+06 -1.11229e+06 -1.11235e+06 -1.11229e+06 -1.11209e+06 -1.11176e+06
          -1.11132e+06 -1.11078e+06 -1.11015e+06 -1.10945e+06 -1.1087e+06 -1.10792e+06 -1.10713e+06 -1.10635e+06 -1.10559e+06 -1.10487e+06 -1.10422e+06 -1.10363e+06
          -1.10312e+06 -1.1027e+06 -1.10238e+06 -1.10216e+06 -1.10205e+06 -1.10216e+06 -1.10227e+06 -1.10249e+06 -1.10282e+06 -1.10325e+06 -1.10376e+06 -1.10437e+06
          -1.10504e+06 -1.10577e+06 -1.10655e+06 -1.10735e+06 -1.10816e+06 -1.10896e+06 -1.10972e+06 -1.11044e+06 -1.11109e+06 -1.11165e+06 -1.1121e+06 -1.11244e+06
          -1.11264e+06 -1.11271e+06 -1.11264e+06 -1.11244e+06 -1.1121e+06 -1.11165e+06 -1.11109e+06 -1.11044e+06 -1.10972e+06 -1.10896e+06 -1.10816e+06 -1.10735e+06
          -1.10655e+06 -1.10577e+06 -1.10504e+06 -1.10437e+06 -1.10376e+06 -1.10325e+06 -1.10282e+06 -1.10249e+06 -1.10227e+06 -1.10216e+06 -1.10238e+06 -1.10249e+06
          -1.10272e+06 -1.10306e+06 -1.1035e+06 -1.10404e+06 -1.10467e+06 -1.10537e+06 -1.10613e+06 -1.10694e+06 -1.10778e+06 -1.10863e+06 -1.10946e+06 -1.11027e+06
          -1.11103e+06 -1.11171e+06 -1.11231e+06 -1.11279e+06 -1.11314e+06 -1.11336e+06 -1.11343e+06 -1.11336e+06 -1.11314e+06 -1.11279e+06 -1.11231e+06 -1.11171e+06
          -1.11103e+06 -1.11027e+06 -1.10946e+06 -1.10863e+06 -1.10778e+06 -1.10694e+06 -1.10613e+06 -1.10537e+06 -1.10467e+06 -1.10404e+06 -1.1035e+06 -1.10306e+06
          -1.10272e+06 -1.10249e+06 -1.10238e+06 -1.1027e+06 -1.10282e+06 -1.10306e+06 -1.10342e+06 -1.10388e+06 -1.10445e+06 -1.10511e+06 -1.10585e+06 -1.10666e+06
          -1.10753e+06 -1.10842e+06 -1.10933e+06 -1.11023e+06 -1.1111e+06 -1.11192e+06 -1.11266e+06 -1.1133e+06 -1.11382e+06 -1.11421e+06 -1.11445e+06 -1.11453e+06
          -1.11445e+06 -1.11421e+06 -1.11382e+06 -1.1133e+06 -1.11266e+06 -1.11192e+06 -1.1111e+06 -1.11023e+06 -1.10933e+06 -1.10842e+06 -1.10753e+06 -1.10666e+06
          -1.10585e+06 -1.10511e+06 -1.10445e+06 -1.10388e+06 -1.10342e+06 -1.10306e+06 -1.10282e+06 -1.1027e+06 -1.10312e+06 -1.10325e+06 -1.1035e+06 -1.10388e+06
          -1.10438e+06 -1.10499e+06 -1.1057e+06 -1.1065e+06 -1.10737e+06 -1.1083e+06 -1.10927e+06 -1.11026e+06 -1.11125e+06 -1.11221e+06 -1.11311e+06 -1.11393e+06
          -1.11464e+06 -1.11523e+06 -1.11566e+06 -1.11592e+06 -1.11601e+06 -1.11592e+06 -1.11566e+06 -1.11523e+06 -1.11464e+06 -1.11393e+06 -1.11311e+06 -1.11221e+06
          -1.11125e+06 -1.11026e+06 -1.10927e+06 -1.1083e+06 -1.10737e+06 -1.1065e+06 -1.1057e+06 -1.10499e+06 -1.10438e+06 -1.10388e+06 -1.1035e+06 -1.10325e+06
          -1.10312e+06 -1.10363e+06 -1.10376e+06 -1.10404e+06 -1.10445e+06 -1.10499e+06 -1.10565e+06 -1.10642e+06 -1.10729e+06 -1.10824e+06 -1.10926e+06 -1.11034e+06
          -1.11143e+06 -1.11253e+06 -1.1136e+06 -1.11461e+06 -1.11554e+06 -1.11635e+06 -1.11701e+06 -1.1175e+06 -1.11781e+06 -1.11791e+06 -1.11781e+06 -1.1175e+06
          -1.11701e+06 -1.11635e+06 -1.11554e+06 -1.11461e+06 -1.1136e+06 -1.11253e+06 -1.11143e+06 -1.11034e+06 -1.10926e+06 -1.10824e+06 -1.10729e+06 -1.10642e+06
          -1.10565e+06 -1.10499e+06 -1.10445e+06 -1.10404e+06 -1.10376e+06 -1.10363e+06 -1.10422e+06 -1.10437e+06 -1.10467e+06 -1.10511e+06 -1.1057e+06 -1.10642e+06
          -1.10726e+06 -1.10822e+06 -1.10927e+06 -1.11041e+06 -1.1116e+06 -1.11283e+06 -1.11406e+06 -1.11528e+06 -1.11643e+06 -1.11749e+06 -1.11843e+06 -1.1192e+06
          -1.11977e+06 -1.12013e+06 -1.12025e+06 -1.12013e+06 -1.11977e+06 -1.1192e+06 -1.11843e+06 -1.11749e+06 -1.11643e+06 -1.11528e+06 -1.11406e+06 -1.11283e+06
          -1.1116e+06 -1.11041e+06 -1.10927e+06 -1.10822e+06 -1.10726e+06 -1.10642e+06 -1.1057e+06 -1.10511e+06 -1.10467e+06 -1.10437e+06 -1.10422e+06 -1.10487e+06
          -1.10504e+06 -1.10537e+06 -1.10585e+06 -1.1065e+06 -1.10729e+06 -1.10822e+06 -1.10928e+06 -1.11045e+06 -1.11172e+06 -1.11306e+06 -1.11445e+06 -1.11586e+06
          -1.11725e+06 -1.11858e+06 -1.11982e+06 -1.12091e+06 -1.12182e+06 -1.1225e+06 -1.12292e+06 -1.12307e+06 -1.12292e+06 -1.1225e+06 -1.12182e+06 -1.12091e+06
          -1.11982e+06 -1.11858e+06 -1.11725e+06 -1.11586e+06 -1.11445e+06 -1.11306e+06 -1.11172e+06 -1.11045e+06 -1.10928e+06 -1.10822e+06 -1.10729e+06 -1.1065e+06
          -1.10585e+06 -1.10537e+06 -1.10504e+06 -1.10487e+06 -1.10559e+06 -1.10577e+06 -1.10613e+06 -1.10666e+06 -1.10737e+06 -1.10824e+06 -1.10927e+06 -1.11045e+06
          -1.11176e+06 -1.11318e+06 -1.1147e+06 -1.11628e+06 -1.1179e+06 -1.11951e+06 -1.12107e+06 -1.12253e+06 -1.12383e+06 -1.12491e+06 -1.12573e+06 -1.12624e+06
          -1.12642e+06 -1.12624e+06 -1.12573e+06 -1.12491e+06 -1.12383e+06 -1.12253e+06 -1.12107e+06 -1.11951e+06 -1.1179e+06 -1.11628e+06 -1.1147e+06 -1.11318e+06
          -1.11176e+06 -1.11045e+06 -1.10927e+06 -1.10824e+06 -1.10737e+06 -1.10666e+06 -1.10613e+06 -1.10577e+06 -1.10559e+06 -1.10635e+06 -1.10655e+06 -1.10694e+06
          -1.10753e+06 -1.1083e+06 -1.10926e+06 -1.11041e+06 -1.11172e+06 -1.11318e+06 -1.11479e+06 -1.11651e+06 -1.11833e+06 -1.12019e+06 -1.12207e+06 -1.12391e+06
          -1.12564e+06 -1.12721e+06 -1.12852e+06 -1.12953e+06 -1.13016e+06 -1.13037e+06 -1.13016e+06 -1.12953e+06 -1.12852e+06 -1.12721e+06 -1.12564e+06 -1.12391e+06
          -1.12207e+06 -1.12019e+06 -1.11833e+06 -1.11651e+06 -1.11479e+06 -1.11318e+06 -1.11172e+06 -1.11041e+06 -1.10926e+06 -1.1083e+06 -1.10753e+06 -1.10694e+06
          -1.10655e+06 -1.10635e+06 -1.10713e+06 -1.10735e+06 -1.10778e+06 -1.10842e+06 -1.10927e+06 -1.11034e+06 -1.1116e+06 -1.11306e+06 -1.1147e+06 -1.11651e+06
          -1.11847e+06 -1.12055e+06 -1.12272e+06 -1.12493e+06 -1.12711e+06 -1.12919e+06 -1.13109e+06 -1.13271e+06 -1.13396e+06 -1.13475e+06 -1.13502e+06 -1.13475e+06
          -1.13396e+06 -1.13271e+06 -1.13109e+06 -1.12919e+06 -1.12711e+06 -1.12493e+06 -1.12272e+06 -1.12055e+06 -1.11847e+06 -1.11651e+06 -1.1147e+06 -1.11306e+06
          -1.1116e+06 -1.11034e+06 -1.10927e+06 -1.10842e+06 -1.10778e+06 -1.10735e+06 -1.10713e+06 -1.10792e+06 -1.10816e+06 -1.10863e+06 -1.10933e+06 -1.11026e+06
          -1.11143e+06 -1.11283e+06 -1.11445e+06 -1.11628e+06 -1.11833e+06 -1.12055e+06 -1.12295e+06 -1.12546e+06 -1.12806e+06 -1.13066e+06 -1.13319e+06 -1.13552e+06
          -1.13755e+06 -1.13913e+06 -1.14013e+06 -1.14048e+06 -1.14013e+06 -1.13913e+06 -1.13755e+06 -1.13552e+06 -1.13319e+06 -1.13066e+06 -1.12806e+06 -1.12546e+06
          -1.12295e+06 -1.12055e+06 -1.11833e+06 -1.11628e+06 -1.11445e+06 -1.11283e+06 -1.11143e+06 -1.11026e+06 -1.10933e+06 -1.10863e+06 -1.10816e+06 -1.10792e+06
          -1.1087e+06 -1.10896e+06 -1.10946e+06 -1.11023e+06 -1.11125e+06 -1.11253e+06 -1.11406e+06 -1.11586e+06 -1.1179e+06 -1.12019e+06 -1.12272e+06 -1.12546e+06
          -1.12839e+06 -1.13145e+06 -1.13457e+06 -1.13765e+06 -1.14055e+06 -1.14312e+06 -1.14516e+06 -1.14648e+06 -1.14694e+06 -1.14648e+06 -1.14516e+06 -1.14312e+06
          -1.14055e+06 -1.13765e+06 -1.13457e+06 -1.13145e+06 -1.12839e+06 -1.12546e+06 -1.12272e+06 -1.12019e+06 -1.1179e+06 -1.11586e+06 -1.11406e+06 -1.11253e+06
          -1.11125e+06 -1.11023e+06 -1.10946e+06 -1.10896e+06 -1.1087e+06 -1.10945e+06 -1.10972e+06 -1.11027e+06 -1.1111e+06 -1.11221e+06 -1.1136e+06 -1.11528e+06
          -1.11725e+06 -1.11951e+06 -1.12207e+06 -1.12493e+06 -1.12806e+06 -1.13145e+06 -1.13505e+06 -1.1388e+06 -1.14258e+06 -1.14623e+06 -1.14954e+06 -1.15223e+06
          -1.15401e+06 -1.15464e+06 -1.15401e+06 -1.15223e+06 -1.14954e+06 -1.14623e+06 -1.14258e+06 -1.1388e+06 -1.13505e+06 -1.13145e+06 -1.12806e+06 -1.12493e+06
          -1.12207e+06 -1.11951e+06 -1.11725e+06 -1.11528e+06 -1.1136e+06 -1.11221e+06 -1.1111e+06 -1.11027e+06 -1.10972e+06 -1.10945e+06 -1.11015e+06 -1.11044e+06
          -1.11103e+06 -1.11192e+06 -1.11311e+06 -1.11461e+06 -1.11643e+06 -1.11858e+06 -1.12107e+06 -1.12391e+06 -1.12711e+06 -1.13066e+06 -1.13457e+06 -1.1388e+06
          -1.14329e+06 -1.14795e+06 -1.15258e+06 -1.15692e+06 -1.16057e+06 -1.16306e+06 -1.16396e+06 -1.16306e+06 -1.16057e+06 -1.15692e+06 -1.15258e+06 -1.14795e+06
          -1.14329e+06 -1.1388e+06 -1.13457e+06 -1.13066e+06 -1.12711e+06 -1.12391e+06 -1.12107e+06 -1.11858e+06 -1.11643e+06 -1.11461e+06 -1.11311e+06 -1.11192e+06
          -1.11103e+06 -1.11044e+06 -1.11015e+06 -1.11078e+06 -1.11109e+06 -1.11171e+06 -1.11266e+06 -1.11393e+06 -1.11554e+06 -1.11749e+06 -1.11982e+06 -1.12253e+06
          -1.12564e+06 -1.12919e+06 -1.13319e+06 -1.13765e+06 -1.14258e+06 -1.14795e+06 -1.15368e+06 -1.15959e+06 -1.16536e+06 -1.17046e+06 -1.17412e+06 -1.17549e+06
          -1.17412e+06 -1.17046e+06 -1.16536e+06 -1.15959e+06 -1.15368e+06 -1.14795e+06 -1.14258e+06 -1.13765e+06 -1.13319e+06 -1.12919e+06 -1.12564e+06 -1.12253e+06
          -1.11982e+06 -1.11749e+06 -1.11554e+06 -1.11393e+06 -1.11266e+06 -1.11171e+06 -1.11109e+06 -1.11078e+06 -1.11132e+06 -1.11165e+06 -1.11231e+06 -1.1133e+06
          -1.11464e+06 -1.11635e+06 -1.11843e+06 -1.12091e+06 -1.12383e+06 -1.12721e+06 -1.13109e+06 -1.13552e+06 -1.14055e+06 -1.14623e+06 -1.15258e+06 -1.15959e+06
          -1.16715e+06 -1.17494e+06 -1.18228e+06 -1.18797e+06 -1.19028e+06 -1.18797e+06 -1.18228e+06 -1.17494e+06 -1.16715e+06 -1.15959e+06 -1.15258e+06 -1.14623e+06
          -1.14055e+06 -1.13552e+06 -1.13109e+06 -1.12721e+06 -1.12383e+06 -1.12091e+06 -1.11843e+06 -1.11635e+06 -1.11464e+06 -1.1133e+06 -1.11231e+06 -1.11165e+06
          -1.11132e+06 -1.11176e+06 -1.1121e+06 -1.11279e+06 -1.11382e+06 -1.11523e+06 -1.11701e+06 -1.1192e+06 -1.12182e+06 -1.12491e+06 -1.12852e+06 -1.13271e+06
          -1.13755e+06 -1.14312e+06 -1.14954e+06 -1.15692e+06 -1.16536e+06 -1.17494e+06 -1.18549e+06 -1.19638e+06 -1.20585e+06 -1.21038e+06 -1.20585e+06 -1.19638e+06
          -1.18549e+06 -1.17494e+06 -1.16536e+06 -1.15692e+06 -1.14954e+06 -1.14312e+06 -1.13755e+06 -1.13271e+06 -1.12852e+06 -1.12491e+06 -1.12182e+06 -1.1192e+06
          -1.11701e+06 -1.11523e+06 -1.11382e+06 -1.11279e+06 -1.1121e+06 -1.11176e+06 -1.11209e+06 -1.11244e+06 -1.11314e+06 -1.11421e+06 -1.11566e+06 -1.1175e+06
          -1.11977e+06 -1.1225e+06 -1.12573e+06 -1.12953e+06 -1.13396e+06 -1.13913e+06 -1.14516e+06 -1.15223e+06 -1.16057e+06 -1.17046e+06 -1.18228e+06 -1.19638e+06
          -1.21273e+06 -1.2297e+06 -1.24061e+06 -1.2297e+06 -1.21273e+06 -1.19638e+06 -1.18228e+06 -1.17046e+06 -1.16057e+06 -1.15223e+06 -1.14516e+06 -1.13913e+06
          -1.13396e+06 -1.12953e+06 -1.12573e+06 -1.1225e+06 -1.11977e+06 -1.1175e+06 -1.11566e+06 -1.11421e+06 -1.11314e+06 -1.11244e+06 -1.11209e+06 -1.11229e+06
          -1.11264e+06 -1.11336e+06 -1.11445e+06 -1.11592e+06 -1.11781e+06 -1.12013e+06 -1.12292e+06 -1.12624e+06 -1.13016e+06 -1.13475e+06 -1.14013e+06 -1.14648e+06
          -1.15401e+06 -1.16306e+06 -1.17412e+06 -1.18797e+06 -1.20585e+06 -1.2297e+06 -1.26139e+06 -1.29496e+06 -1.26139e+06 -1.2297e+06 -1.20585e+06 -1.18797e+06
          -1.17412e+06 -1.16306e+06 -1.15401e+06 -1.14648e+06 -1.14013e+06 -1.13475e+06 -1.13016e+06 -1.12624e+06 -1.12292e+06 -1.12013e+06 -1.11781e+06 -1.11592e+06
          -1.11445e+06 -1.11336e+06 -1.11264e+06 -1.11229e+06 -1.11235e+06 -1.11271e+06 -1.11343e+06 -1.11453e+06 -1.11601e+06 -1.11791e+06 -1.12025e+06 -1.12307e+06
          -1.12642e+06 -1.13037e+06 -1.13502e+06 -1.14048e+06 -1.14694e+06 -1.15464e+06 -1.16396e+06 -1.17549e+06 -1.19028e+06 -1.21038e+06 -1.24061e+06 -1.29496e+06
          -1.42568e+06 -1.29496e+06 -1.24061e+06 -1.21038e+06 -1.19028e+06 -1.17549e+06 -1.16396e+06 -1.15464e+06 -1.14694e+06 -1.14048e+06 -1.13502e+06 -1.13037e+06
          -1.12642e+06 -1.12307e+06 -1.12025e+06 -1.11791e+06 -1.11601e+06 -1.11453e+06 -1.11343e+06 -1.11271e+06 -1.11235e+06 -1.11229e+06 -1.11264e+06 -1.11336e+06
          -1.11445e+06 -1.11592e+06 -1.11781e+06 -1.12013e+06 -1.12292e+06 -1.12624e+06 -1.13016e+06 -1.13475e+06 -1.14013e+06 -1.14648e+06 -1.15401e+06 -1.16306e+06
          -1.17412e+06 -1.18797e+06 -1.20585e+06 -1.2297e+06 -1.26139e+06 -1.29496e+06 -1.26139e+06 -1.2297e+06 -1.20585e+06 -1.18797e+06 -1.17412e+06 -1.16306e+06
          -1.15401e+06 -1.14648e+06 -1.14013e+06 -1.13475e+06 -1.13016e+06 -1.12624e+06 -1.12292e+06 -1.12013e+06 -1.11781e+06 -1.11592e+06 -1.11445e+06 -1.11336e+06
          -1.11264e+06 -1.11229e+06 -1.11209e+06 -1.11244e+06 -1.11314e+06 -1.11421e+06 -1.11566e+06 -1.1175e+06 -1.11977e+06 -1.1225e+06 -1.12573e+06 -1.12953e+06
          -1.13396e+06 -1.13913e+06 -1.14516e+06 -1.15223e+06 -1.16057e+06 -1.17046e+06 -1.18228e+06 -1.19638e+06 -1.21273e+06 -1.2297e+06 -1.24061e+06 -1.2297e+06
          -1.21273e+06 -1.19638e+06 -1.18228e+06 -1.17046e+06 -1.16057e+06 -1.15223e+06 -1.14516e+06 -1.13913e+06 -1.13396e+06 -1.12953e+06 -1.12573e+06 -1.1225e+06
          -1.11977e+06 -1.1175e+06 -1.11566e+06 -1.11421e+06 -1.11314e+06 -1.11244e+06 -1.11209e+06 -1.11176e+06 -1.1121e+06 -1.11279e+06 -1.11382e+06 -1.11523e+06
          -1.11701e+06 -1.1192e+06 -1.12182e+06 -1.12491e+06 -1.12852e+06 -1.13271e+06 -1.13755e+06 -1.14312e+06 -1.14954e+06 -1.15692e+06 -1.16536e+06 -1.17494e+06
          -1.18549e+06 -1.19638e+06 -1.20585e+06 -1.21038e+06 -1.20585e+06 -1.19638e+06 -1.18549e+06 -1.17494e+06 -1.16536e+06 -1.15692e+06 -1.14954e+06 -1.14312e+06
          -1.13755e+06 -1.13271e+06 -1.12852e+06 -1.12491e+06 -1.12182e+06 -1.1192e+06 -1.11701e+06 -1.11523e+06 -1.11382e+06 -1.11279e+06 -1.1121e+06 -1.11176e+06
          -1.11132e+06 -1.11165e+06 -1.11231e+06 -1.1133e+06 -1.11464e+06 -1.11635e+06 -1.11843e+06 -1.12091e+06 -1.12383e+06 -1.12721e+06 -1.13109e+06 -1.13552e+06
          -1.14055e+06 -1.14623e+06 -1.15258e+06 -1.15959e+06 -1.16715e+06 -1.17494e+06 -1.18228e+06 -1.18797e+06 -1.19028e+06 -1.18797e+06 -1.18228e+06 -1.17494e+06
          -1.16715e+06 -1.15959e+06 -1.15258e+06 -1.14623e+06 -1.14055e+06 -1.13552e+06 -1.13109e+06 -1.12721e+06 -1.12383e+06 -1.12091e+06 -1.11843e+06 -1.11635e+06
          -1.11464e+06 -1.1133e+06 -1.11231e+06 -1.11165e+06 -1.11132e+06 -1.11078e+06 -1.11109e+06 -1.11171e+06 -1.11266e+06 -1.11393e+06 -1.11554e+06 -1.11749e+06
          -1.11982e+06 -1.12253e+06 -1.12564e+06 -1.12919e+06 -1.13319e+06 -1.13765e+06 -1.14258e+06 -1.14795e+06 -1.15368e+06 -1.15959e+06 -1.16536e+06 -1.17046e+06
          -1.17412e+06 -1.17549e+06 -1.17412e+06 -1.17046e+06 -1.16536e+06 -1.15959e+06 -1.15368e+06 -1.14795e+06 -1.14258e+06 -1.13765e+06 -1.13319e+06 -1.12919e+06
          -1.12564e+06 -1.12253e+06 -1.11982e+06 -1.11749e+06 -1.11554e+06 -1.11393e+06 -1.11266e+06 -1.11171e+06 -1.11109e+06 -1.11078e+06 -1.11015e+06 -1.11044e+06
          -1.11103e+06 -1.11192e+06 -1.11311e+06 -1.11461e+06 -1.11643e+06 -1.11858e+06 -1.12107e+06 -1.12391e+06 -1.12711e+06 -1.13066e+06 -1.13457e+06 -1.1388e+06
          -1.14329e+06 -1.14795e+06 -1.15258e+06 -1.15692e+06 -1.16057e+06 -1.16306e+06 -1.16396e+06 -1.16306e+06 -1.16057e+06 -1.15692e+06 -1.15258e+06 -1.14795e+06
          -1.14329e+06 -1.1388e+06 -1.13457e+06 -1.13066e+06 -1.12711e+06 -1.12391e+06 -1.12107e+06 -1.11858e+06 -1.11643e+06 -1.11461e+06 -1.11311e+06 -1.11192e+06
          -1.11103e+06 -1.11044e+06 -1.11015e+06 -1.10945e+06 -1.10972e+06 -1.11027e+06 -1.1111e+06 -1.11221e+06 -1.1136e+06 -1.11528e+06 -1.11725e+06 -1.11951e+06
          -1.12207e+06 -1.12493e+06 -1.12806e+06 -1.13145e+06 -1.13505e+06 -1.1388e+06 -1.14258e+06 -1.14623e+06 -1.14954e+06 -1.15223e+06 -1.15401e+06 -1.15464e+06
          -1.15401e+06 -1.15223e+06 -1.14954e+06 -1.14623e+06 -1.14258e+06 -1.1388e+06 -1.13505e+06 -1.13145e+06 -1.12806e+06 -1.12493e+06 -1.12207e+06 -1.11951e+06
          -1.11725e+06 -1.11528e+06 -1.1136e+06 -1.11221e+06 -1.1111e+06 -1.11027e+06 -1.10972e+06 -1.10945e+06 -1.1087e+06 -1.10896e+06 -1.10946e+06 -1.11023e+06
          -1.11125e+06 -1.11253e+06 -1.11406e+06 -1.11586e+06 -1.1179e+06 -1.12019e+06 -1.12272e+06 -1.12546e+06 -1.12839e+06 -1.13145e+06 -1.13457e+06 -1.13765e+06
          -1.14055e+06 -1.14312e+06 -1.14516e+06 -1.14648e+06 -1.14694e+06 -1.14648e+06 -1.14516e+06 -1.14312e+06 -1.14055e+06 -1.13765e+06 -1.13457e+06 -1.13145e+06
          -1.12839e+06 -1.12546e+06 -1.12272e+06 -1.12019e+06 -1.1179e+06 -1.11586e+06 -1.11406e+06 -1.11253e+06 -1.11125e+06 -1.11023e+06 -1.10946e+06 -1.10896e+06
          -1.1087e+06 -1.10792e+06 -1.10816e+06 -1.10863e+06 -1.10933e+06 -1.11026e+06 -1.11143e+06 -1.11283e+06 -1.11445e+06 -1.11628e+06 -1.11833e+06 -1.12055e+06
          -1.12295e+06 -1.12546e+06 -1.12806e+06 -1.13066e+06 -1.13319e+06 -1.13552e+06 -1.13755e+06 -1.13913e+06 -1.14013e+06 -1.14048e+06 -1.14013e+06 -1.13913e+06
          -1.13755e+06 -1.13552e+06 -1.13319e+06 -1.13066e+06 -1.12806e+06 -1.12546e+06 -1.12295e+06 -1.12055e+06 -1.11833e+06 -1.11628e+06 -1.11445e+06 -1.11283e+06
          -1.11143e+06 -1.11026e+06 -1.10933e+06 -1.10863e+06 -1.10816e+06 -1.10792e+06 -1.10713e+06 -1.10735e+06 -1.10778e+06 -1.10842e+06 -1.10927e+06 -1.11034e+06
          -1.1116e+06 -1.11306e+06 -1.1147e+06 -1.11651e+06 -1.11847e+06 -1.12055e+06 -1.12272e+06 -1.12493e+06 -1.12711e+06 -1.12919e+06 -1.13109e+06 -1.13271e+06
          -1.13396e+06 -1.13475e+06 -1.13502e+06 -1.13475e+06 -1.13396e+06 -1.13271e+06 -1.13109e+06 -1.12919e+06 -1.12711e+06 -1.12493e+06 -1.12272e+06 -1.12055e+06
          -1.11847e+06 -1.11651e+06 -1.1147e+06 -1.11306e+06 -1.1116e+06 -1.11034e+06 -1.10927e+06 -1.10842e+06 -1.10778e+06 -1.10735e+06 -1.10713e+06 -1.10635e+06
          -1.10655e+06 -1.10694e+06 -1.10753e+06 -1.1083e+06 -1.10926e+06 -1.11041e+06 -1.11172e+06 -1.11318e+06 -1.11479e+06 -1.11651e+06 -1.11833e+06 -1.12019e+06
          -1.12207e+06 -1.12391e+06 -1.12564e+06 -1.12721e+06 -1.12852e+06 -1.12953e+06 -1.13016e+06 -1.13037e+06 -1.13016e+06 -1.12953e+06 -1.12852e+06 -1.12721e+06
          -1.12564e+06 -1.12391e+06 -1.12207e+06 -1.12019e+06 -1.11833e+06 -1.11651e+06 -1.11479e+06 -1.11318e+06 -1.11172e+06 -1.11041e+06 -1.10926e+06 -1.1083e+06
          -1.10753e+06 -1.10694e+06 -1.10655e+06 -1.10635e+06 -1.10559e+06 -1.10577e+06 -1.10613e+06 -1.10666e+06 -1.10737e+06 -1.10824e+06 -1.10927e+06 -1.11045e+06
          -1.11176e+06 -1.11318e+06 -1.1147e+06 -1.11628e+06 -1.1179e+06 -1.11951e+06 -1.12107e+06 -1.12253e+06 -1.12383e+06 -1.12491e+06 -1.12573e+06 -1.12624e+06
          -1.12642e+06 -1.12624e+06 -1.12573e+06 -1.12491e+06 -1.12383e+06 -1.12253e+06 -1.12107e+06 -1.11951e+06 -1.1179e+06 -1.11628e+06 -1.1147e+06 -1.11318e+06
          -1.11176e+06 -1.11045e+06 -1.10927e+06 -1.10824e+06 -1.10737e+06 -1.10666e+06 -1.10613e+06 -1.10577e+06 -1.10559e+06 -1.10487e+06 -1.10504e+06 -1.10537e+06
          -1.10585e+06 -1.1065e+06 -1.10729e+06 -1.10822e+06 -1.10928e+06 -1.11045e+06 -1.11172e+06 -1.11306e+06 -1.11445e+06 -1.11586e+06 -1.11725e+06 -1.11858e+06
          -1.11982e+06 -1.12091e+06 -1.12182e+06 -1.1225e+06 -1.12292e+06 -1.12307e+06 -1.12292e+06 -1.1225e+06 -1.12182e+06 -1.12091e+06 -1.11982e+06 -1.11858e+06
          -1.11725e+06 -1.11586e+06 -1.11445e+06 -1.11306e+06 -1.11172e+06 -1.11045e+06 -1.10928e+06 -1.10822e+06 -1.10729e+06 -1.1065e+06 -1.10585e+06 -1.10537e+06
          -1.10504e+06 -1.10487e+06 -1.10422e+06 -1.10437e+06 -1.10467e+06 -1.10511e+06 -1.1057e+06 -1.10642e+06 -1.10726e+06 -1.10822e+06 -1.10927e+06 -1.11041e+06
          -1.1116e+06 -1.11283e+06 -1.11406e+06 -1.11528e+06 -1.11643e+06 -1.11749e+06 -1.11843e+06 -1.1192e+06 -1.11977e+06 -1.12013e+06 -1.12025e+06 -1.12013e+06
          -1.11977e+06 -1.1192e+06 -1.11843e+06 -1.11749e+06 -1.11643e+06 -1.11528e+06 -1.11406e+06 -1.11283e+06 -1.1116e+06 -1.11041e+06 -1.10927e+06 -1.10822e+06
          -1.10726e+06 -1.10642e+06 -1.1057e+06 -1.10511e+06 -1.10467e+06 -1.10437e+06 -1.10422e+06 -1.10363e+06 -1.10376e+06 -1.10404e+06 -1.10445e+06 -1.10499e+06
          -1.10565e+06 -1.10642e+06 -1.10729e+06 -1.10824e+06 -1.10926e+06 -1.11034e+06 -1.11143e+06 -1.11253e+06 -1.1136e+06 -1.11461e+06 -1.11554e+06 -1.11635e+06
          -1.11701e+06 -1.1175e+06 -1.11781e+06 -1.11791e+06 -1.11781e+06 -1.1175e+06 -1.11701e+06 -1.11635e+06 -1.11554e+06 -1.11461e+06 -1.1136e+06 -1.11253e+06
          -1.11143e+06 -1.11034e+06 -1.10926e+06 -1.10824e+06 -1.10729e+06 -1.10642e+06 -1.10565e+06 -1.10499e+06 -1.10445e+06 -1.10404e+06 -1.10376e+06 -1.10363e+06
          -1.10312e+06 -1.10325e+06 -1.1035e+06 -1.10388e+06 -1.10438e+06 -1.10499e+06 -1.1057e+06 -1.1065e+06 -1.10737e+06 -1.1083e+06 -1.10927e+06 -1.11026e+06
          -1.11125e+06 -1.11221e+06 -1.11311e+06 -1.11393e+06 -1.11464e+06 -1.11523e+06 -1.11566e+06 -1.11592e+06 -1.11601e+06 -1.11592e+06 -1.11566e+06 -1.11523e+06
          -1.11464e+06 -1.11393e+06 -1.11311e+06 -1.11221e+06 -1.11125e+06 -1.11026e+06 -1.10927e+06 -1.1083e+06 -1.10737e+06 -1.1065e+06 -1.1057e+06 -1.10499e+06
          -1.10438e+06 -1.10388e+06 -1.1035e+06 -1.10325e+06 -1.10312e+06 -1.1027e+06 -1.10282e+06 -1.10306e+06 -1.10342e+06 -1.10388e+06 -1.10445e+06 -1.10511e+06
          -1.10585e+06 -1.10666e+06 -1.10753e+06 -1.10842e+06 -1.10933e+06 -1.11023e+06 -1.1111e+06 -1.11192e+06 -1.11266e+06 -1.1133e+06 -1.11382e+06 -1.11421e+06
          -1.11445e+06 -1.11453e+06 -1.11445e+06 -1.11421e+06 -1.11382e+06 -1.1133e+06 -1.11266e+06 -1.11192e+06 -1.1111e+06 -1.11023e+06 -1.10933e+06 -1.10842e+06
          -1.10753e+06 -1.10666e+06 -1.10585e+06 -1.10511e+06 -1.10445e+06 -1.10388e+06 -1.10342e+06 -1.10306e+06 -1.10282e+06 -1.1027e+06 -1.10238e+06 -1.10249e+06
          -1.10272e+06 -1.10306e+06 -1.1035e+06 -1.10404e+06 -1.10467e+06 -1.10537e+06 -1.10613e+06 -1.10694e+06 -1.10778e+06 -1.10863e+06 -1.10946e+06 -1.11027e+06
          -1.11103e+06 -1.11171e+06 -1.11231e+06 -1.11279e+06 -1.11314e+06 -1.11336e+06 -1.11343e+06 -1.11336e+06 -1.11314e+06 -1.11279e+06 -1.11231e+06 -1.11171e+06
          -1.11103e+06 -1.11027e+06 -1.10946e+06 -1.10863e+06 -1.10778e+06 -1.10694e+06 -1.10613e+06 -1.10537e+06 -1.10467e+06 -1.10404e+06 -1.1035e+06 -1.10306e+06
          -1.10272e+06 -1.10249e+06 -1.10238e+06 -1.10216e+06 -1.10227e+06 -1.10249e+06 -1.10282e+06 -1.10325e+06 -1.10376e+06 -1.10437e+06 -1.10504e+06 -1.10577e+06
          -1.10655e+06 -1.10735e+06 -1.10816e+06 -1.10896e+06 -1.10972e+06 -1.11044e+06 -1.11109e+06 -1.11165e+06 -1.1121e+06 -1.11244e+06 -1.11264e+06 -1.11271e+06
          -1.11264e+06 -1.11244e+06 -1.1121e+06 -1.11165e+06 -1.11109e+06 -1.11044e+06 -1.10972e+06 -1.10896e+06 -1.10816e+06 -1.10735e+06 -1.10655e+06 -1.10577e+06
          -1.10504e+06 -1.10437e+06 -1.10376e+06 -1.10325e+06 -1.10282e+06 -1.10249e+06 -1.10227e+06 -1.10216e+06 -1.10205e+06 -1.10216e+06 -1.10238e+06 -1.1027e+06
          -1.10312e+06 -1.10363e+06 -1.10422e+06 -1.10487e+06 -1.10559e+06 -1.10635e+06 -1.10713e+06 -1.10792e+06 -1.1087e+06 -1.10945e+06 -1.11015e+06 -1.11078e+06
          -1.11132e+06 -1.11176e+06 -1.11209e+06 -1.11229e+06 -1.11235e+06 -1.11229e+06 -1.11209e+06 -1.11176e+06 -1.11132e+06 -1.11078e+06 -1.11015e+06 -1.10945e+06
          -1.1087e+06 -1.10792e+06 -1.10713e+06 -1.10635e+06 -1.10559e+06 -1.10487e+06 -1.10422e+06 -1.10363e+06 -1.10312e+06 -1.1027e+06 -1.10238e+06 -1.10216e+06
          -1.10205e+06
        </DataArray>
        <DataArray type="Float32" Name="saturation" NumberOfComponents="1" format="ascii">
          0.713487 0.713482 0.713474 0.713462 0.713446 0.713426 0.713404 0.713378 0.713351 0.713322 0.713292 0.713262
          0.713232 0.713204 0.713177 0.713153 0.713132 0.713116 0.713103 0.713096 0.713093 0.713096 0.713103 0.713116
          0.713132 0.713153 0.713177 0.713204 0.713232 0.713262 0.713292 0.713322 0.713351 0.713378 0.713404 0.713426
          0.713446 0.713462 0.713474 0.713482 0.713487 0.713482 0.713478 0.71347 0.713457 0.713441 0.713421 0.713398
          0.713372 0.713344 0.713314 0.713284 0.713253 0.713223 0.713193 0.713166 0.713141 0.71312 0.713103 0.71309
          0.713082 0.71308 0.713082 0.71309 0.713103 0.71312 0.713141 0.713166 0.713193 0.713223 0.713253 0.713284
          0.713314 0.713344 0.713372 0.713398 0.713421 0.713441 0.713457 0.71347 0.713478 0.713482 0.713474 0.71347
          0.713461 0.713448 0.713431 0.71341 0.713386 0.71336 0.71333 0.7133 0.713268 0.713235 0.713203 0.713172
          0.713143 0.713117 0.713095 0.713077 0.713063 0.713055 0.713052 0.713055 0.713063 0.713077 0.713095 0.713117
          0.713143 0.713172 0.713203 0.713235 0.713268 0.7133 0.71333 0.71336 0.713386 0.71341 0.713431 0.713448
          0.713461 0.71347 0.713474 0.713462 0.713457 0.713448 0.713434 0.713416 0.713395 0.713369 0.713341 0.71331
          0.713277 0.713243 0.713208 0.713174 0.713141 0.71311 0.713082 0.713057 0.713037 0.713023 0.713014 0.713011
          0.713014 0.713023 0.713037 0.713057 0.713082 0.71311 0.713141 0.713174 0.713208 0.713243 0.713277 0.71331
          0.713341 0.713369 0.713395 0.713416 0.713434 0.713448 0.713457 0.713462 0.713446 0.713441 0.713431 0.713416
          0.713397 0.713374 0.713347 0.713316 0.713283 0.713247 0.71321 0.713173 0.713135 0.713099 0.713064 0.713033
          0.713006 0.712984 0.712968 0.712958 0.712954 0.712958 0.712968 0.712984 0.713006 0.713033 0.713064 0.713099
          0.713135 0.713173 0.71321 0.713247 0.713283 0.713316 0.713347 0.713374 0.713397 0.713416 0.713431 0.713441
          0.713446 0.713426 0.713421 0.71341 0.713395 0.713374 0.713349 0.713319 0.713286 0.71325 0.713211 0.71317
          0.713128 0.713087 0.713046 0.713007 0.712972 0.712942 0.712917 0.712898 0.712886 0.712882 0.712886 0.712898
          0.712917 0.712942 0.712972 0.713007 0.713046 0.713087 0.713128 0.71317 0.713211 0.71325 0.713286 0.713319
          0.713349 0.713374 0.713395 0.71341 0.713421 0.713426 0.713404 0.713398 0.713386 0.713369 0.713347 0.713319
          0.713287 0.713251 0.71321 0.713167 0.713122 0.713075 0.713028 0.712982 0.712938 0.712898 0.712863 0.712834
          0.712812 0.712799 0.712794 0.712799 0.712812 0.712834 0.712863 0.712898 0.712938 0.712982 0.713028 0.713075
          0.713122 0.713167 0.71321 0.713251 0.713287 0.713319 0.713347 0.713369 0.713386 0.713398 0.713404 0.713378
          0.713372 0.71336 0.713341 0.713316 0.713286 0.713251 0.71321 0.713166 0.713117 0.713066 0.713014 0.71296
          0.712908 0.712857 0.71281 0.712769 0.712735 0.712709 0.712693 0.712688 0.712693 0.712709 0.712735 0.712769
          0.71281 0.712857 0.712908 0.71296 0.713014 0.713066 0.713117 0.713166 0.71321 0.713251 0.713286 0.713316
          0.713341 0.71336 0.713372 0.713378 0.713351 0.713344 0.71333 0.71331 0.713283 0.71325 0.71321 0.713166
          0.713116 0.713062 0.713004 0.712944 0.712883 0.712822 0.712763 0.712708 0.712659 0.712619 0.712588 0.712569
          0.712562 0.712569 0.712588 0.712619 0.712659 0.712708 0.712763 0.712822 0.712883 0.712944 0.713004 0.713062
          0.713116 0.713166 0.71321 0.71325 0.713283 0.71331 0.71333 0.713344 0.713351 0.713322 0.713314 0.7133
          0.713277 0.713247 0.713211 0.713167 0.713117 0.713062 0.713001 0.712935 0.712867 0.712796 0.712725 0.712656
          0.712591 0.712532 0.712483 0.712445 0.712422 0.712414 0.712422 0.712445 0.712483 0.712532 0.712591 0.712656
          0.712725 0.712796 0.712867 0.712935 0.713001 0.713062 0.713117 0.713167 0.713211 0.713247 0.713277 0.7133
          0.713314 0.713322 0.713292 0.713284 0.713268 0.713243 0.71321 0.71317 0.713122 0.713066 0.713004 0.712935
          0.712861 0.712783 0.712701 0.712618 0.712536 0.712458 0.712387 0.712326 0.71228 0.712251 0.712241 0.712251
          0.71228 0.712326 0.712387 0.712458 0.712536 0.712618 0.712701 0.712783 0.712861 0.712935 0.713004 0.713066
          0.713122 0.71317 0.71321 0.713243 0.713268 0.713284 0.713292 0.713262 0.713253 0.713235 0.713208 0.713173
          0.713128 0.713075 0.713014 0.712944 0.712867 0.712783 0.712692 0.712598 0.7125 0.712403 0.712309 0.712222
          0.712146 0.712088 0.71205 0.712037 0.71205 0.712088 0.712146 0.712222 0.712309 0.712403 0.7125 0.712598
          0.712692 0.712783 0.712867 0.712944 0.713014 0.713075 0.713128 0.713173 0.713208 0.713235 0.713253 0.713262
          0.713232 0.713223 0.713203 0.713174 0.713135 0.713087 0.713028 0.71296 0.712883 0.712796 0.712701 0.712598
          0.712488 0.712374 0.712257 0.712143 0.712035 0.71194 0.711864 0.711816 0.711799 0.711816 0.711864 0.71194
          0.712035 0.712143 0.712257 0.712374 0.712488 0.712598 0.712701 0.712796 0.712883 0.71296 0.713028 0.713087
          0.713135 0.713174 0.713203 0.713223 0.713232 0.713204 0.713193 0.713172 0.713141 0.713099 0.713046 0.712982
          0.712908 0.712822 0.712725 0.712618 0.7125 0.712374 0.712239 0.7121 0.71196 0.711825 0.711703 0.711604
          0.711539 0.711516 0.711539 0.711604 0.711703 0.711825 0.71196 0.7121 0.712239 0.712374 0.7125 0.712618
          0.712725 0.712822 0.712908 0.712982 0.713046 0.713099 0.713141 0.713172 0.713193 0.713204 0.713177 0.713166
          0.713143 0.71311 0.713064 0.713007 0.712938 0.712857 0.712763 0.712656 0.712536 0.712403 0.712257 0.7121
          0.711933 0.711762 0.711591 0.711433 0.7113 0.711209 0.711176 0.711209 0.7113 0.711433 0.711591 0.711762
          0.711933 0.7121 0.712257 0.712403 0.712536 0.712656 0.712763 0.712857 0.712938 0.713007 0.713064 0.71311
          0.713143 0.713166 0.713177 0.713153 0.713141 0.713117 0.713082 0.713033 0.712972 0.712898 0.71281 0.712708
          0.712591 0.712458 0.712309 0.712143 0.71196 0.711762 0.711551 0.711335 0.711125 0.710941 0.710809 0.710759
          0.710809 0.710941 0.711125 0.711335 0.711551 0.711762 0.71196 0.712143 0.712309 0.712458 0.712591 0.712708
          0.71281 0.712898 0.712972 0.713033 0.713082 0.713117 0.713141 0.713153 0.713132 0.71312 0.713095 0.713057