<?xml version="1.0"?>
<VTKFile type="UnstructuredGrid" version="0.1" byte_order="LittleEndian">
  <UnstructuredGrid>
    <Piece NumberOfCells="1280" NumberOfPoints="1701">
      <CellData Scalars="p (Pa)">
        <DataArray type="Float32" Name="p (Pa)" NumberOfComponents="1" format="ascii">
          -789700 -246875 -249594 -240933 -231805 -203007 -125221 -85456.5 -250762 -181590 -237008 -183061
          -163573 -151585 -176117 -102400 -243960 -190415 -241766 -236107 -198778 -131272 -153828 -89290.9
          -198911 -225771 -201806 -199446 -133234 -96284.5 -81994.7 -58696.7 -104174 -161089 -171446 -129128
          -120603 -93559.9 -60561.4 -42243 -52478 -68635.1 -78176.6 -87138 -145693 -125594 -56604.1 -33323.8
          -27010.5 -33004.3 -39470.3 -48214.3 -65366.3 -57301.9 -33732.5 -21643.6 -16033.1 -19342.3 -24098.7 -30304.6
          -37101.9 -32663 -21566.1 -14568.4 -218487 -227929 -785219 -804322 -804344 -790319 -227008 -117864
          -252408 -255198 -793320 -332034 -293145 -300813 -775045 -179565 -796559 -356117 -799688 -793387
          -789507 -244998 -740359 -158256 -762267 -796613 -562109 -781569 -245790 -147113 -145593 -81865.4
          -189786 -771517 -779904 -249664 -247424 -187287 -91525.1 -55536.5 -72277 -122562 -139151 -156672
          -771802 -726819 -108821 -45720.3 -33460.1 -43947.3 -52868.7 -67380.4 -123195 -110561 -48701.4 -27593.1
          -19196.7 -23552 -29422.3 -37939 -50982.6 -45215.8 -27522.3 -17830.6 -121401 -148839 -273667 -376796
          -803060 -803537 -269813 -141474 -198707 -246573 -793833 -351409 -344846 -808870 -797162 -217462
          -796708 -793582 -794308 -793527 -345514 -314306 -789493 -194093 -808544 -806876 -431063 -800754
          -313936 -223069 -187182 -101824 -218728 -786866 -789059 -332159 -802766 -659038 -144792 -71363.1
          -83686.5 -139387 -159199 -184201 -784052 -780857 -129526 -54508.3 -38992.4 -51069.5 -61543.6 -79034.8
          -142126 -128884 -56881.2 -32025.9 -22721 -27712.7 -34437.6 -44422.6 -59885.3 -52784.8 -31774 -20504
          -84166.8 -108981 -208562 -797953 -798937 -803906 -279547 -150079 -119570 -139814 -228803 -329795
          -354796 -807496 -801610 -226051 -248191 -233806 -311586 -793899 -356008 -378455 -791691 -201187
          -796014 -358568 -309412 -347656 -344684 -298091 -203464 -108671 -226591 -787270 -788922 -314942
          -800642 -788949 -164952 -76575.6 -88999 -144895 -164896 -189594 -785542 -767050 -124149 -53709.7
          -42675.7 -54993.4 -65709.4 -83250.4 -145167 -122654 -54442.3 -31175 -25601.8 -30753.2 -37636.2 -47565.3
          -61961.3 -51517.2 -30889.1 -20036.9 -69583.3 -93552.3 -189865 -795311 -798955 -802501 -280911 -150300
          -95292.1 -109361 -167856 -303650 -364965 -466265 -795928 -221231 -192994 -167601 -271199 -793445
          -813518 -800647 -725428 -176365 -791954 -298394 -293103 -343188 -795149 -766659 -200742 -97839.1
          -232827 -787530 -788813 -289629 -570818 -772636 -140085 -65855 -93525.5 -148708 -167719 -188961
          -784778 -197995 -75880.5 -42079.5 -45901 -57911 -68083.5 -83473.6 -135640 -76505 -40642.2 -25301.4
          -28175.2 -33184.5 -39686.9 -48207.2 -58325.2 -41732.6 -25431.8 -16728.2 -66350.4 -91851.2 -191118 -795692
          -804410 -795748 -274566 -143435 -91636 -113516 -208483 -355355 -430559 -814566 -791853 -199622
          -189960 -202731 -776799 -792699 -800972 -794405 -242962 -119783 -793464 -316580 -338909 -345359
          -794903 -263548 -120008 -73254.3 -268103 -788990 -789454 -272608 -310994 -177887 -80735.8 -49090.5
          -105389 -155326 -173583 -189454 -782926 -139081 -55676.8 -32734.1 -51032 -61947.5 -71850.7 -84273.9
          -129587 -62542.6 -32517.1 -20220 -31299.3 -36046.8 -42258.3 -48947 -55388.8 -36122 -21115.1 -13485.6
          -69231 -95555.2 -195733 -793892 -823972 -800690 -253790 -130547 -93615.3 -114387 -213926 -799024
          -834518 -794722 -767272 -180672 -190182 -173065 -289507 -793324 -794285 -311035 -181466 -101069
          -795923 -330850 -345355 -345728 -790894 -185817 -93965.8 -61607.3 -789862 -793459 -790818 -270452
          -255061 -117018 -62090 -40652 -153672 -171129 -213669 -197007 -781815 -127686 -48133.1 -27813.8
          -60776 -69247.2 -84189.8 -88499.2 -127869 -58084.2 -28742.6 -17262.1 -35118.7 -39967.9 -47364.2 -51244.7
          -54358.6 -33607.1 -18707.1 -11402.7 -81289.1 -112805 -211596 -800990 -801071 -337435 -194445 -110883
          -104030 -129883 -228373 -793829 -806548 -795228 -691080 -163210 -201935 -221635 -313504 -792376
          -796370 -269760 -200267 -105254 -798652 -796367 -811003 -369420 -271890 -139418 -92578 -62129.1
          -790297 -796271 -797918 -276524 -212893 -102142 -58354.1 -39243.4 -156842 -206896 -778391 -235301
          -781213 -124573 -46150.6 -26462.5 -62531.4 -78877.4 -130779 -98555.4 -128566 -56865.9 -27520.3 -16219.5
          -35951.9 -43172.9 -56140.3 -54655.9 -54471.3 -32785.9 -17789.3 -10550.5 -115940 -188937 -260887 -372242
          -807141 -271799 -139981 -91322.3 -129449 -163827 -257879 -796285 -805355 -792903 -253934 -123766
          -216253 -250558 -358988 -791636 -393904 -286358 -764861 -159249 -795812 -794425 -795993 -805353
          -248586 -147653 -140773 -77725 -264778 -793559 -798541 -311556 -217572 -107420 -66494.8 -43941.7
          -106740 -187714 -736814 -231163 -780681 -126254 -48014.8 -27979.4 -51649.8 -71516.7 -122063 -95983.9
          -128122 -57268.5 -28090.3 -16759.2 -31213.6 -39114.9 -52349.8 -52858 -54014.8 -32850 -17992.2 -10767.9
          -215244 -788137 -793857 -305552 -300219 -224125 -123899 -83720.6 -212575 -284881 -345806 -398425
          -737044 -790857 -228750 -116111 -192130 -305272 -804974 -792119 -798526 -326116 -778932 -173014
          -284438 -798074 -793992 -798031 -295337 -167970 -157337 -87371.2 -190251 -786119 -791196 -338628
          -266319 -127149 -76046 -49856.7 -82539.5 -144394 -187925 -195056 -781003 -132552 -52691.1 -31386.2
          -40430.2 -55031.7 -72021.2 -83497.7 -126788 -59602.7 -30381.8 -18641.1 -24223.4 -30529.8 -39408.2 -46688.3
          -52970.8 -33865.4 -19257.5 -11916.8 -314967 -795955 -792524 -321818 -249692 -200182 -117874 -81931.6
          -762318 -813937 -455782 -783951 -795668 -784759 -223572 -115674 -249734 -364843 -808912 -791230
          -797578 -347579 -781800 -179487 -233706 -795050 -446155 -794044 -374530 -205031 -174942 -96757
          -153601 -758808 -275551 -795376 -790954 -215600 -97970.3 -59330.4 -63772.8 -115420 -111176 -196045
          -779001 -168906 -66281.1 -38017 -29799.2 -41185.5 -51370.5 -75396.3 -127603 -69080 -36051 -22162.5
          -16855.3 -21996.3 -29600.9 -40695.7 -52222.2 -36899.9 -21848.8 -13871.7 -349065 -820282 -795592 -295678
          -171902 -136320 -116953 -86678.3 -797223 -797277 -801878 -802679 -305550 -232730 -222785 -124348
          -257461 -335357 -462689 -792164 -810034 -325641 -785052 -189413 -174473 -707385 -791649 -792778
          -801784 -296266 -203557 -109543 -85188.5 -160279 -213370 -791121 -793016 -785637 -159498 -75579.9
          -40338.7 -58882.9 -82797.2 -178044 -784647 -716441 -113934 -49600.8 -18800.4 -25896.2 -37972.5 -65445.4
          -128824 -109339 -47541.1 -26780.8 -9602.79 -13678.3 -21190.7 -33651.3 -49603.8 -42505.6 -24958.8 -15659.8
          -303136 -388838 -794844 -245319 -144315 -131629 -171829 -108318 -791650 -792968 -821416 -338172
          -202650 -219847 -722294 -182059 -260071 -308135 -808485 -791032 -352216 -318285 -790628 -207732
          -117899 -192010 -758398 -792947 -399525 -264875 -216630 -120907 -56656.8 -80614.6 -157074 -640121
          -791491 -686689 -188985 -88409 -26052.8 -35742.6 -59570.9 -139355 -748354 -638312 -115651 -53138.4
          -10391.8 -15263.1 -25894.2 -48960.9 -103913 -95332.5 -45310.3 -26577.4 -3435.17 -6600.62 -13011.8 -23614.3
          -37560.9 -35270.2 -22116.9 -14294.3 -274020 -307607 -791099 -243570 -149747 -145271 -197109 -119522
          -797350 -346560 -424186 -308053 -241308 -273013 -787855 -206285 -783101 -263098 -791712 -791343
          -793833 -792913 -790402 -213992 -140500 -117274 -215959 -787520 -794226 -345261 -283524 -142968
          -47893.5 -52860 -82712.9 -176030 -667170 -254116 -641478 -129155 -17806.2 -22481.8 -35436.6 -64481.6
          -133918 -122191 -105440 -53736.3 -4274.87 -7364.3 -14217.5 -26277.9 -44007.5 -44033.6 -34142.8 -22291.2
          1528.32 -723.437 -5253.41 -12006.2 -19320 -19657.2 -14741.8 -9990.91 -209547 -355451 -789891 -256482
          -160211 -152336 -171894 -98926.5 -304505 -303249 -796978 -593078 -278631 -307703 -780697 -168666
          -783038 -243603 -309027 -789846 -672543 -829206 -765902 -179959 -127625 -96372.3 -122403 -211535
          -306286 -794243 -765261 -161814 -39251.2 -39990.8 -52998.3 -82774.5 -140950 -181792 -694951 -116365
          -11652.7 -14293.9 -21423.6 -34239 -53267.1 -61391.8 -85996.3 -42299.6 382.517 -1642.46 -5913.33 -12387.6
          -19814.3 -22220.7 -22350.1 -14469.2 5450.68 3881.48 849.449 -3260.23 -7193.27 -8199.9 -6774.12 -4016.83
          -243811 -790489 -342476 -195537 -190426 -161541 -92019 -60656.6 -213776 -381072 -798245 -348540
          -738640 -759776 -169776 -80851.1 -326981 -780254 -787683 -790035 -800029 -787306 -182900 -85501.5
          -83176.6 -119219 -142787 -192793 -761639 -747630 -161345 -72868.5 -27991.4 -35349.8 -45790.6 -63876.2
          -114669 -113970 -96195.3 -47123 -6214.16 -9116.01 -14327.1 -22025 -32819.3 -33932.1 -31325.8 -19556
          4090.77 2458.59 -540.825 -4488.32 -8401.54 -9120.67 -7729.41 -4261.98 8525.82 7350.38 5232.46 2642.35
          465.526 30.4967 1005.35 2516.46 -184853 -711851 -266406 -162616 -117756 -81349.5 -50436.5 -35208.2
          -180953 -783053 -794585 -310471 -227626 -140867 -67596.5 -41597.3 -109795 -209861 -775874 -788060
          -785654 -178074 -73283.8 -42557.4 -48253.1 -71145.6 -126700 -165718 -525298 -132152 -58029.8 -33717.3
          -17616.4 -24698.8 -37708.2 -50814.4 -78664.5 -48394.7 -31510.8 -19224.7 -1509.32 -4335.87 -9185.35 -14451.1
          -19687.8 -15221.9 -10231.4 -5515.71 7048.91 5616.07 3193.29 575.39 -1276.35 -374.707 1553.12 3469.6
          10893.9 9935.14 8325.35 6616.34 5530.99 5794.66 6839.96 7854.99 -96065.4 -162854 -171265 -175599
          -90958.2 -51846.2 -30614.3 -20685.1 -96127.9 -188214 -321116 -714859 -154481 -69632 -36579.5 -23127.7
          -67703 -140065 -763530 -786201 -197970 -78628.9 -38066.5 -22749.5 -33143.8 -53959.1 -114857 -135676
          -110360 -54549.1 -27823.7 -16272.5 -11191.6 -18160.2 -31672.1 -39903.2 -39055.8 -24086.6 -12929.4 -6642.15
          1832.13 -941.081 -5585.22 -9255.01 -9887.74 -5407.79 -804.794 2205.42 9195.24 7857.52 5710.6 3828.14
          3293.97 4841.38 6907.35 8378.01 12598.1 11747.4 10396.5 9169.89 8746.25 9466.43 10643.9 11522.5
          -61890 -93164.8 -166857 -169916 -80367.7 -40903.5 -21762.5 -13308.3 -66728.6 -139589 -740381 -784764
          -144807 -54990.8 -25996.7 -14908.8 -51286.1 -118077 -763427 -786404 -185817 -65533.2 -28067.6 -14742.1
          -25308.3 -44978.6 -105777 -134136 -121170 -48056.6 -20133.2 -9498.98 -7310.92 -14101.2 -27836.5 -37928.7
          -38783.5 -19596.6 -7281.61 -1425.44 3968.28 1219.74 -3507.33 -7512.23 -8101.64 -2269.7 2966.34 5882.38
          10570.9 9258.43 7144.59 5318.17 5046.68 7150.22 9531.82 11010.4 13678.4 12864.1 11590.6 10504.8
          10333.4 11369.7 12731.9 13638.1 -46451.4 -64263.5 -97355.2 -107754 -69056.1 -36619.2 -18559.3 -10420.4
          -48216.3 -78161.8 -163527 -226058 -135291 -54591.8 -23854.2 -12281.3 -37846.7 -66851.9 -173222 -786219
          -684787 -103073 -31481.9 -13353.4 -19688.7 -33001.5 -66829.3 -156185 -773549 -93884.3 -25007.9 -8702.14
          -4939.53 -10754.1 -22826 -43170.9 -81375.8 -28737.9 -8040.38 -277.171 5106.9 2474.61 -2343.95 -8416.88
          -13391.6 -3595.28 3547.26 7033.99 11234.4 9928.78 7736.66 5496.99 4654.11 7463.53 10345.5 12004.1
          14171.5 13360.3 12070.7 10918.7 10715.4 11977.9 13527.6 14509.8
        </DataArray>
        <DataArray type="Float32" Name="saturation" NumberOfComponents="1" format="ascii">
          0.20975 0.227753 0.227558 0.228187 0.228879 0.231276 0.240082 0.246756 0.227475 0.233309 0.228481 0.233161
          0.23522 0.236612 0.233868 0.243657 0.227964 0.232442 0.228126 0.228549 0.231659 0.23923 0.236344 0.246016
          0.231647 0.229353 0.231384 0.231598 0.238961 0.244726 0.247446 0.252699 0.243356 0.2355 0.23436 0.239528
          0.240758 0.24522 0.252234 0.257217 0.254315 0.250317 0.248231 0.246429 0.237336 0.240029 0.253232 0.260032
          0.262214 0.260139 0.258061 0.255485 0.251075 0.253053 0.259897 0.264209 0.26645 0.265108 0.263279 0.261054
          0.258804 0.260253 0.264238 0.267064 0.229944 0.229182 0.209822 0.209519 0.209519 0.20974 0.229255 0.241169
          0.227359 0.227164 0.209692 0.222607 0.224735 0.22429 0.209987 0.233514 0.209641 0.221437 0.209591 0.209691
          0.209753 0.227889 0.210575 0.235825 0.210199 0.20964 0.214346 0.209881 0.227831 0.237159 0.237348 0.247472
          0.232502 0.210045 0.209908 0.227553 0.227713 0.232744 0.245596 0.253508 0.249499 0.240468 0.238173 0.236009
          0.21004 0.210815 0.242588 0.256195 0.259987 0.256711 0.254211 0.250605 0.240376 0.242308 0.255349 0.262005
          0.265166 0.263483 0.26136 0.258539 0.254719 0.256341 0.26203 0.265713 0.240639 0.236946 0.225933 0.220508
          0.209539 0.209531 0.226181 0.237871 0.231665 0.227775 0.209684 0.221657 0.221972 0.209448 0.209631 0.230029
          0.209638 0.209688 0.209676 0.209689 0.221939 0.223538 0.209753 0.232093 0.209453 0.209479 0.21835 0.209575
          0.223558 0.22957 0.232754 0.243755 0.229924 0.209795 0.20976 0.222601 0.209543 0.212119 0.237449 0.249701
          0.247106 0.238142 0.235716 0.233048 0.20984 0.209892 0.239472 0.253776 0.25821 0.254696 0.251993 0.248052
          0.237788 0.239562 0.25316 0.260467 0.263797 0.261962 0.259664 0.256572 0.252402 0.254233 0.260552 0.26465
          0.247011 0.242562 0.230786 0.209619 0.209603 0.209525 0.225561 0.236795 0.240912 0.238086 0.229113 0.222721
          0.221498 0.20947 0.209561 0.229331 0.227658 0.228725 0.223686 0.209683 0.221442 0.220436 0.209718 0.23144
          0.209649 0.221323 0.223806 0.221836 0.22198 0.224446 0.231235 0.242612 0.229288 0.209789 0.209762 0.223503
          0.209576 0.209762 0.235067 0.248569 0.246072 0.237436 0.235073 0.232521 0.209816 0.210119 0.240237 0.253987
          0.257088 0.253649 0.250994 0.247193 0.237402 0.240455 0.253794 0.260756 0.262724 0.2609 0.258635 0.255668
          0.251891 0.254574 0.260854 0.264833 0.250101 0.245221 0.232495 0.20966 0.209603 0.209547 0.225476 0.236768
          0.244905 0.242501 0.234747 0.224128 0.221031 0.21713 0.209651 0.229719 0.232197 0.234775 0.226091 0.20969
          0.209377 0.209576 0.21084 0.233842 0.209714 0.224429 0.224738 0.222052 0.209663 0.210126 0.23148 0.244449
          0.2288 0.209784 0.209764 0.224944 0.214126 0.210027 0.238051 0.25096 0.245226 0.236962 0.234762 0.232582
          0.209829 0.231731 0.248717 0.257266 0.256143 0.252898 0.250443 0.247149 0.238637 0.248583 0.257701 0.262834
          0.261798 0.260079 0.257995 0.255487 0.252793 0.257371 0.262786 0.266163 0.250844 0.245535 0.232375 0.209654
          0.209518 0.209653 0.225875 0.237621 0.245575 0.241839 0.230793 0.221472 0.218368 0.209361 0.209715 0.231582
          0.232486 0.231301 0.209958 0.209702 0.209571 0.209675 0.228038 0.24088 0.20969 0.223415 0.222262 0.221947
          0.209667 0.226595 0.240846 0.249284 0.226293 0.209761 0.209754 0.226001 0.223719 0.233685 0.247702 0.25524
          0.243152 0.236167 0.234133 0.232534 0.209859 0.238182 0.253471 0.260229 0.254706 0.251894 0.249593 0.24699
          0.239464 0.25175 0.260302 0.264762 0.260713 0.259142 0.257213 0.25528 0.253546 0.259117 0.264413 0.267526
          0.250181 0.244857 0.23194 0.209683 0.209218 0.209576 0.227262 0.23933 0.24521 0.241703 0.230326 0.209602
          0.209061 0.20967 0.210116 0.233401 0.232464 0.234188 0.224952 0.209692 0.209677 0.223716 0.233321 0.243885
          0.209651 0.222667 0.221947 0.221929 0.209731 0.232888 0.245146 0.251977 0.209747 0.20969 0.209732 0.22614
          0.227173 0.241298 0.25186 0.257698 0.236362 0.234394 0.230347 0.231822 0.209877 0.239731 0.255508 0.261926
          0.252181 0.250177 0.247006 0.246167 0.239705 0.252854 0.261598 0.265945 0.259442 0.257908 0.255725 0.254648
          0.253816 0.259938 0.265361 0.268435 0.247589 0.241951 0.230524 0.209571 0.20957 0.222336 0.23206 0.242256
          0.24338 0.239423 0.229147 0.209684 0.209484 0.209662 0.211481 0.235261 0.231372 0.229686 0.223581 0.209707
          0.209644 0.226185 0.231523 0.243175 0.209608 0.209644 0.209416 0.220831 0.226047 0.238138 0.2454 0.25185
          0.20974 0.209645 0.209619 0.225751 0.230413 0.243701 0.252786 0.258132 0.235989 0.230931 0.209932 0.22861
          0.209886 0.240176 0.256071 0.262411 0.251752 0.248085 0.239298 0.244323 0.239607 0.253164 0.262031 0.266373
          0.259172 0.25694 0.253351 0.253737 0.253786 0.260212 0.26573 0.268814 0.241463 0.232584 0.226774 0.220707
          0.209475 0.226053 0.238064 0.245634 0.239483 0.235192 0.226979 0.209645 0.209503 0.209699 0.227252 0.240293
          0.23013 0.227489 0.221304 0.209719 0.219787 0.225142 0.210156 0.23571 0.209652 0.209674 0.20965 0.209503
          0.22763 0.237092 0.237962 0.248326 0.226513 0.209688 0.209609 0.223688 0.23002 0.242817 0.250811 0.256713
          0.242929 0.232703 0.210637 0.228929 0.209895 0.239934 0.255541 0.261868 0.254538 0.249667 0.240542 0.24478
          0.239669 0.253061 0.261828 0.26615 0.260743 0.258172 0.25435 0.254213 0.253906 0.26019 0.265648 0.268717
          0.230215 0.209775 0.209683 0.224021 0.224324 0.229485 0.240273 0.2471 0.23044 0.225231 0.221925 0.219603
          0.210633 0.209731 0.229117 0.241437 0.232278 0.224037 0.209509 0.209711 0.20961 0.222911 0.209923 0.234193
          0.225259 0.209617 0.209681 0.209617 0.224606 0.234735 0.235931 0.246384 0.232458 0.209807 0.209726 0.222276
          0.226411 0.239807 0.248681 0.255028 0.247336 0.237499 0.232682 0.232003 0.20989 0.239054 0.254258 0.260684
          0.257766 0.253639 0.249555 0.247144 0.239858 0.252472 0.261028 0.265387 0.263232 0.260977 0.258081 0.255917
          0.254183 0.259853 0.265141 0.268208 0.223502 0.20965 0.209705 0.223136 0.227551 0.231531 0.241168 0.247459
          0.210198 0.20937 0.21748 0.209842 0.209655 0.209829 0.229529 0.241504 0.227548 0.221037 0.209448 0.209725
          0.209625 0.22184 0.209877 0.233521 0.228732 0.209665 0.217811 0.20968 0.220606 0.231096 0.233991 0.244642
          0.236371 0.210258 0.225813 0.209659 0.20973 0.230185 0.244426 0.25254 0.251453 0.241543 0.242209 0.231911
          0.209922 0.234633 0.25086 0.258515 0.261229 0.257536 0.254614 0.24882 0.239743 0.250215 0.25914 0.26401
          0.266111 0.264073 0.261298 0.257685 0.254384 0.258868 0.26413 0.267361 0.221769 0.209274 0.209656 0.224587
          0.234311 0.238546 0.241308 0.246518 0.20963 0.209629 0.209557 0.209545 0.224021 0.228807 0.229593 0.240208
          0.227008 0.222439 0.217248 0.20971 0.20943 0.222935 0.209824 0.232538 0.23404 0.211171 0.209719 0.209701
          0.209559 0.224552 0.231227 0.242471 0.246809 0.235592 0.230373 0.209727 0.209697 0.209815 0.235682 0.248781
          0.257794 0.252652 0.247284 0.233669 0.209831 0.211004 0.241774 0.255099 0.265323 0.262617 0.258529 0.251056
          0.239571 0.242504 0.255675 0.262296 0.269242 0.267443 0.264383 0.259924 0.255098 0.257139 0.26296 0.266605
          0.224157 0.219996 0.209668 0.227866 0.237509 0.239181 0.234319 0.24267 0.209719 0.209698 0.209257 0.222299
          0.231308 0.229832 0.210897 0.233261 0.226829 0.223877 0.209454 0.209728 0.221619 0.223323 0.209735 0.230858
          0.241164 0.23229 0.210264 0.209698 0.219558 0.226506 0.230098 0.240713 0.253218 0.247727 0.235962 0.212517
          0.209721 0.211566 0.232579 0.246184 0.26256 0.25924 0.25248 0.238146 0.210436 0.212556 0.241508 0.254139
          0.268885 0.266771 0.262617 0.255276 0.2434 0.244897 0.256313 0.26237 0.272177 0.270637 0.26773 0.26346
          0.258659 0.259393 0.264027 0.26718 0.22591 0.223906 0.209727 0.227993 0.236835 0.237389 0.231812 0.240919
          0.209628 0.221889 0.218603 0.223881 0.22816 0.225975 0.209779 0.230985 0.209856 0.226625 0.209718 0.209723
          0.209684 0.209698 0.209738 0.23032 0.237997 0.241259 0.230155 0.209785 0.209678 0.221952 0.225315 0.23768
          0.255575 0.254213 0.247301 0.233877 0.211953 0.227239 0.212488 0.239524 0.265723 0.263888 0.259339 0.251284
          0.238869 0.240523 0.243144 0.25398 0.271761 0.270276 0.267213 0.262478 0.256693 0.256686 0.259761 0.26396
          0.274749 0.273557 0.271283 0.268169 0.265117 0.264983 0.266991 0.269066 0.2307 0.221468 0.209747 0.227075
          0.2356 0.236522 0.234312 0.244258 0.22408 0.224151 0.209634 0.213581 0.225618 0.223901 0.209895 0.234659
          0.209857 0.227991 0.223827 0.209747 0.211845 0.20914 0.210138 0.233473 0.239739 0.24471 0.240492 0.230529
          0.22398 0.209677 0.210149 0.235418 0.258129 0.257901 0.254176 0.247289 0.237939 0.233288 0.211406 0.241398
          0.268324 0.267181 0.264293 0.25973 0.254104 0.25203 0.246651 0.2572 0.274137 0.273083 0.270965 0.268002
          0.264921 0.263987 0.263938 0.267106 0.276933 0.276042 0.274385 0.272264 0.270356 0.269886 0.270554 0.271888
          0.227975 0.209737 0.222087 0.231958 0.232441 0.235449 0.245504 0.252211 0.230338 0.220324 0.209614 0.221794
          0.210605 0.210241 0.234539 0.247678 0.222866 0.209902 0.209782 0.209744 0.209586 0.209788 0.233177 0.246748
          0.247208 0.240965 0.237703 0.232216 0.21021 0.210449 0.235471 0.249369 0.261863 0.259367 0.256174 0.251429
          0.241659 0.241768 0.244742 0.255793 0.270821 0.269464 0.267166 0.264062 0.2602 0.259831 0.260704 0.265023
          0.27616 0.275254 0.273652 0.271656 0.269793 0.269462 0.270105 0.271767 0.278748 0.278043 0.276808 0.275355
          0.274181 0.273951 0.274468 0.275286 0.232983 0.211088 0.226405 0.235328 0.241185 0.247577 0.254869 0.259413
          0.233373 0.209857 0.209672 0.223747 0.229206 0.23795 0.250555 0.257411 0.24243 0.230673 0.209973 0.209776
          0.209815 0.233666 0.249278 0.257123 0.255474 0.24975 0.239871 0.234982 0.215335 0.239109 0.252868 0.259902
          0.2658 0.263056 0.258612 0.254765 0.248129 0.255435 0.260642 0.265154 0.273151 0.271731 0.269432 0.267114
          0.264971 0.266789 0.268958 0.271156 0.277864 0.277028 0.275659 0.274239 0.273271 0.273739 0.274762 0.275812
          0.280214 0.279613 0.278627 0.27761 0.276979 0.277131 0.277741 0.278344 0.244765 0.235301 0.234379 0.233922
          0.245702 0.254485 0.260948 0.26458 0.244754 0.232654 0.223173 0.211033 0.236266 0.25009 0.258971 0.263643
          0.25053 0.238054 0.210178 0.209806 0.231733 0.248137 0.258499 0.263786 0.260092 0.253921 0.24163 0.238632
          0.24234 0.253765 0.261923 0.266351 0.268528 0.26558 0.260587 0.257928 0.25819 0.263283 0.267766 0.270617
          0.274913 0.273444 0.271123 0.2694 0.269113 0.271208 0.273515 0.275116 0.279157 0.278346 0.277083 0.276012
          0.275715 0.276584 0.277781 0.278659 0.281308 0.280758 0.279901 0.279141 0.278882 0.279323 0.280057 0.280614
          0.251908 0.245292 0.234856 0.234524 0.247777 0.257622 0.264163 0.267602 0.250756 0.238115 0.210575 0.209829
          0.237447 0.25365 0.26258 0.26692 0.254637 0.241137 0.21018 0.209802 0.232888 0.251036 0.261836 0.266991
          0.262832 0.25641 0.243088 0.238839 0.240674 0.255529 0.264796 0.269289 0.270301 0.267263 0.261918 0.258543
          0.258275 0.265007 0.270315 0.273194 0.276091 0.274583 0.272141 0.270207 0.269932 0.272763 0.275533 0.277182
          0.280011 0.279195 0.277921 0.276857 0.276701 0.277924 0.279364 0.280288 0.282019 0.281482 0.280657 0.279969
          0.279862 0.280516 0.281395 0.281992 0.255985 0.251336 0.244535 0.242762 0.250221 0.258958 0.26542 0.268873
          0.255485 0.248234 0.235225 0.22933 0.238684 0.253754 0.26337 0.268048 0.258568 0.250727 0.234171 0.209805
          0.211603 0.243542 0.260651 0.267583 0.264971 0.26014 0.250733 0.236066 0.210012 0.24516 0.262942 0.269654
          0.271436 0.268723 0.263757 0.25694 0.247571 0.2616 0.26996 0.27379 0.276736 0.275263 0.272725 0.269786
          0.267566 0.272097 0.275855 0.277856 0.28043 0.279609 0.278273 0.276959 0.276478 0.27811 0.279869 0.280923
          0.282349 0.281808 0.280966 0.28023 0.280102 0.280906 0.281919 0.282576
        </DataArray>
        <DataArray type="Float32" Name="process rank" NumberOfComponents="1" format="ascii">
          0 0 0 0 0 0 0 0 0 0 0 0
          0 0 0 0 0 0 0 0 0 0 0 0
          0 0 0 0 0 0 0 0 0 0 0 0
          0 0 0 0 0 0 0 0 0 0 0 0
          0 0 0 0 0 0 0 0 0 0 0 0
          0 0 0 0 0 0 0 0 0 0 0 0
          0 0 0 0 0 0 0 0 0 0 0 0
          0 0 0 0 0 0 0 0 0 0 0 0
          0 0 0 0 0 0 0 0 0 0 0 0
          0 0 0 0 0 0 0 0 0 0 0 0
          0 0 0 0 0 0 0 0 0 0 0 0
          0 0 0 0 0 0 0 0 0 0 0 0
          0 0 0 0 0 0 0 0 0 0 0 0
          0 0 0 0 0 0 0 0 0 0 0 0
          0 0 0 0 0 0 0 0 0 0 0 0
          0 0 0 0 0 0 0 0 0 0 0 0
          0 0 0 0 0 0 0 0 0 0 0 0
          0 0 0 0 0 0 0 0 0 0 0 0
          0 0 0 0 0 0 0 0 0 0 0 0
          0 0 0 0 0 0 0 0 0 0 0 0
          0 0 0 0 0 0 0 0 0 0 0 0
          0 0 0 0 0 0 0 0 0 0 0 0
          0 0 0 0 0 0 0 0 0 0 0 0
          0 0 0 0 0 0 0 0 0 0 0 0
          0 0 0 0 0 0 0 0 0 0 0 0
          0 0 0 0 0 0 0 0 0 0 0 0
          0 0 0 0 0 0 0 0 0 0 0 0
          0 0 0 0 0 0 0 0 0 0 0 0
          0 0 0 0 0 0 0 0 0 0 0 0
          0 0 0 0 0 0 0 0 0 0 0 0
          0 0 0 0 0 0 0 0 0 0 0 0
          0 0 0 0 0 0 0 0 0 0 0 0
          0 0 0 0 0 0 0 0 0 0 0 0
          0 0 0 0 0 0 0 0 0 0 0 0
          0 0 0 0 0 0 0 0 0 0 0 0
          0 0 0 0 0 0 0 0 0 0 0 0
          0 0 0 0 0 0 0 0 0 0 0 0
          0 0 0 0 0 0 0 0 0 0 0 0
          0 0 0 0 0 0 0 0 0 0 0 0
          0 0 0 0 0 0 0 0 0 0 0 0
          0 0 0 0 0 0 0 0 0 0 0 0
          0 0 0 0 0 0 0 0 0 0 0 0
          0 0 0 0 0 0 0 0 0 0 0 0
          0 0 0 0 0 0 0 0 0 0 0 0
          0 0 0 0 0 0 0 0 0 0 0 0
          0 0 0 0 0 0 0 0 0 0 0 0
          0 0 0 0 0 0 0 0 0 0 0 0
          0 0 0 0 0 0 0 0 0 0 0 0
          0 0 0 0 0 0 0 0 0 0 0 0
          0 0 0 0 0 0 0 0 0 0 0 0
          0 0 0 0 0 0 0 0 0 0 0 0
          0 0 0 0 0 0 0 0 0 0 0 0
          0 0 0 0 0 0 0 0 0 0 0 0
          0 0 0 0 0 0 0 0 0 0 0 0
          0 0 0 0 0 0 0 0 0 0 0 0
          0 0 0 0 0 0 0 0 0 0 0 0
          0 0 0 0 0 0 0 0 0 0 0 0
          0 0 0 0 0 0 0 0 0 0 0 0
          0 0 0 0 0 0 0 0 0 0 0 0
          0 0 0 0 0 0 0 0 0 0 0 0
          0 0 0 0 0 0 0 0 0 0 0 0
          0 0 0 0 0 0 0 0 0 0 0 0
          0 0 0 0 0 0 0 0 0 0 0 0
          0 0 0 0 0 0 0 0 0 0 0 0
          0 0 0 0 0 0 0 0 0 0 0 0
          0 0 0 0 0 0 0 0 0 0 0 0
          0 0 0 0 0 0 0 0 0 0 0 0
          0 0 0 0 0 0 0 0 0 0 0 0
          0 0 0 0 0 0 0 0 0 0 0 0
          0 0 0 0 0 0 0 0 0 0 0 0
          0 0 0 0 0 0 0 0 0 0 0 0
          0 0 0 0 0 0 0 0 0 0 0 0
          0 0 0 0 0 0 0 0 0 0 0 0
          0 0 0 0 0 0 0 0 0 0 0 0
          0 0 0 0 0 0 0 0 0 0 0 0
          0 0 0 0 0 0 0 0 0 0 0 0
          0 0 0 0 0 0 0 0 0 0 0 0
          0 0 0 0 0 0 0 0 0 0 0 0
          0 0 0 0 0 0 0 0 0 0 0 0
          0 0 0 0 0 0 0 0 0 0 0 0
          0 0 0 0 0 0 0 0 0 0 0 0
          0 0 0 0 0 0 0 0 0 0 0 0
          0 0 0 0 0 0 0 0 0 0 0 0
          0 0 0 0 0 0 0 0 0 0 0 0
          0 0 0 0 0 0 0 0 0 0 0 0
          0 0 0 0 0 0 0 0 0 0 0 0
          0 0 0 0 0 0 0 0 0 0 0 0
          0 0 0 0 0 0 0 0 0 0 0 0
          0 0 0 0 0 0 0 0 0 0 0 0
          0 0 0 0 0 0 0 0 0 0 0 0
          0 0 0 0 0 0 0 0 0 0 0 0
          0 0 0 0 0 0 0 0 0 0 0 0
          0 0 0 0 0 0 0 0 0 0 0 0
          0 0 0 0 0 0 0 0 0 0 0 0
          0 0 0 0 0 0 0 0 0 0 0 0
          0 0 0 0 0 0 0 0 0 0 0 0
          0 0 0 0 0 0 0 0 0 0 0 0
          0 0 0 0 0 0 0 0 0 0 0 0
          0 0 0 0 0 0 0 0 0 0 0 0
          0 0 0 0 0 0 0 0 0 0 0 0
          0 0 0 0 0 0 0 0 0 0 0 0
          0 0 0 0 0 0 0 0 0 0 0 0
          0 0 0 0 0 0 0 0 0 0 0 0
          0 0 0 0 0 0 0 0 0 0 0 0
          0 0 0 0 0 0 0 0 0 0 0 0
          0 0 0 0 0 0 0 0 0 0 0 0
          0 0 0 0 0 0 0 0
        </DataArray>
      </CellData>
      <Points>
        <DataArray type="Float32" Name="Coordinates" NumberOfComponents="3" format="ascii">
          -0.04 -0.04 -0.2 -0.03 -0.04 -0.2 -0.04 -0.03 -0.2 -0.03 -0.03 -0.2
          -0.04 -0.04 -0.19 -0.03 -0.04 -0.19 -0.04 -0.03 -0.19 -0.03 -0.03 -0.19
          -0.02 -0.04 -0.2 -0.02 -0.03 -0.2 -0.02 -0.04 -0.19 -0.02 -0.03 -0.19
          -0.01 -0.04 -0.2 -0.01 -0.03 -0.2 -0.01 -0.04 -0.19 -0.01 -0.03 -0.19
          0 -0.04 -0.2 0 -0.03 -0.2 0 -0.04 -0.19 0 -0.03 -0.19
          0.01 -0.04 -0.2 0.01 -0.03 -0.2 0.01 -0.04 -0.19 0.01 -0.03 -0.19
          0.02 -0.04 -0.2 0.02 -0.03 -0.2 0.02 -0.04 -0.19 0.02 -0.03 -0.19
          0.03 -0.04 -0.2 0.03 -0.03 -0.2 0.03 -0.04 -0.19 0.03 -0.03 -0.19
          0.04 -0.04 -0.2 0.04 -0.03 -0.2 0.04 -0.04 -0.19 0.04 -0.03 -0.19
          -0.04 -0.02 -0.2 -0.03 -0.02 -0.2 -0.04 -0.02 -0.19 -0.03 -0.02 -0.19
          -0.02 -0.02 -0.2 -0.02 -0.02 -0.19 -0.01 -0.02 -0.2 -0.01 -0.02 -0.19
          0 -0.02 -0.2 0 -0.02 -0.19 0.01 -0.02 -0.2 0.01 -0.02 -0.19
          0.02 -0.02 -0.2 0.02 -0.02 -0.19 0.03 -0.02 -0.2 0.03 -0.02 -0.19
          0.04 -0.02 -0.2 0.04 -0.02 -0.19 -0.04 -0.01 -0.2 -0.03 -0.01 -0.2
          -0.04 -0.01 -0.19 -0.03 -0.01 -0.19 -0.02 -0.01 -0.2 -0.02 -0.01 -0.19
          -0.01 -0.01 -0.2 -0.01 -0.01 -0.19 0 -0.01 -0.2 0 -0.01 -0.19
          0.01 -0.01 -0.2 0.01 -0.01 -0.19 0.02 -0.01 -0.2 0.02 -0.01 -0.19
          0.03 -0.01 -0.2 0.03 -0.01 -0.19 0.04 -0.01 -0.2 0.04 -0.01 -0.19
          -0.04 0 -0.2 -0.03 0 -0.2 -0.04 0 -0.19 -0.03 0 -0.19
          -0.02 0 -0.2 -0.02 0 -0.19 -0.01 0 -0.2 -0.01 0 -0.19
          0 0 -0.2 0 0 -0.19 0.01 0 -0.2 0.01 0 -0.19