<?xml version="1.0"?>
<VTKFile type="UnstructuredGrid" version="0.1" byte_order="LittleEndian">
  <UnstructuredGrid>
    <Piece NumberOfCells="1280" NumberOfPoints="1701">
      <CellData Scalars="p (Pa)">
        <DataArray type="Float32" Name="p (Pa)" NumberOfComponents="1" format="ascii">
          32762.5 32774.1 32800.7 32845.2 32905.1 32970.4 33026.4 33058.7 32779.5 32790.8 32816.8 32860.7
          32919.8 32984.4 33039.6 33071.6 32816.1 32826.8 32851.9 32894.2 32951.4 33013.8 33067.3 33098.2
          32873.4 32883.5 32907.1 32946.9 33000.5 33059.1 33109.3 33138.4 32946.6 32956.1 32977.8 33014.1
          33062.9 33116.2 33161.9 33188.3 33023.6 33032.3 33052 33084.7 33128.2 33175.7 33216.4 33240
          33088 33096.1 33114.1 33143.6 33182.7 33225.3 33261.8 33283 33124.7 33132.4 33149.5 33177.1
          33213.7 33253.5 33287.7 33307.5 32262.7 32274.4 32304.8 32360.8 32440.5 32529.8 32607.2 32652.1
          32281.2 32292.4 32322.1 32377.4 32456.4 32545.1 32622 32666.6 32324.1 32334.7 32363.1 32416.6
          32493.5 32579.8 32654.7 32698.1 32396.3 32406.3 32433.1 32483.4 32555.6 32636.6 32706.8 32747.6
          32492.9 32502.4 32527.2 32572.9 32637.9 32710.9 32774.3 32811.2 32596.7 32605.7 32628.3 32668.9
          32726 32790 32845.7 32878.2 32684.5 32693 32713.6 32749.8 32800.2 32856.6 32905.9 32934.7
          32734.8 32742.9 32762.4 32796 32842.7 32894.8 32940.4 32967 31299.2 31308.5 31343.8 31423.7
          31548.8 31694.5 31822.6 31897.2 31318 31326 31359.7 31438.8 31564.3 31710.8 31839.4 31914.2
          31371.3 31377.9 31409.5 31486.7 31610.2 31754.5 31881 31954.6 31475.1 31481.4 31511.5 31584.5
          31700.4 31835.6 31954.4 32023.6 31625 31632.1 31660.6 31726.3 31829 31948.9 32054.8 32116.7
          31791.8 31799.5 31826 31883.1 31970.8 32073.3 32164.5 32218 31934.4 31942.4 31966.7 32016.4
          32091.6 32179.7 32258.3 32304.7 32016.4 32024.4 32047.3 32092.8 32161.1 32240.9 32312.4 32354.7
          29739.3 29735.4 29768 29885.4 30096.8 30353.4 30580.9 30713.5 29749 29740.8 29768.1 29885.1
          30101.4 30364.1 30596.1 30730.9 29808.8 29796.1 29818.1 29933.6 30151.3 30415.2 30647.3 30781.8
          29964.1 29952.4 29974.8 30086.1 30290.1 30536.9 30754.8 30881.5 30214.9 30208.9 30233.9 30332.6
          30508.3 30722.5 30913.7 31025.7 30503.8 30503.2 30529.1 30612 30756 30933.1 31093.4 31188.3
          30752.7 30755.6 30780.6 30850.2 30968.7 31115.4 31249.7 31329.7 30895.7 30900 30924.2 30986.4
          31091.1 31220.9 31340.5 31412.1 27367.2 27318.6 27316 27483.8 27855.3 28323.5 28738.3 28978.9
          27337 27272.1 27249.6 27416.1 27810.2 28304.9 28738.5 28988.1 27375.1 27292.7 27249.8 27417.5
          27831.4 28345 28790 29044.4 27604.6 27527 27493.3 27666.9 28052.7 28529.9 28947.2 29187.3
          28041.8 27988.6 27978.1 28127.8 28443.7 28844.8 29204.2 29413.9 28561.5 28531.3 28536.5 28654
          28896.8 29214.2 29506.3 29679.6 29008.4 28992.5 29004.8 29097.4 29286.2 29537.2 29773.1 29915.2
          29263.7 29254.2 29268.8 29348.7 29509.5 29724.7 29929.4 30053.6 23862.9 23687.7 23552 23770
          24448.7 25326.4 26092.7 26531.2 23708.1 23472.9 23256.3 23462.3 24231.6 25208.1 26039.7 26508.5
          23627.9 23319.6 23005.7 23216.4 24094.4 25167.7 26055.8 26549.1 23947.7 23650.9 23380.2 23675.1
          24474.2 25453.1 26281.3 26747.3 24741.8 24541 24388.1 24621 25215.6 26002.7 26700.8 27103.1
          25705.4 25588.3 25511.6 25667.1 26080.4 26668.3 27215.9 27539.8 26520.7 26452.5 26413 26520.5
          26817 27255 27678.5 27934.8 26980 26932.9 26908.5 26995 27235.8 27596 27951 28168.9
          18776.9 18279.8 17745.3 17958.6 19263 20952.5 22377.1 23173.5 18287.2 17575.9 16709.3 16828.4
          18496.5 20540 22175.6 23063.8 17806.4 16786.2 15413.6 15471.9 17710.6 20192 22051.8 23030
          18180 17155.9 15928.5 16629.3 18507.8 20662.9 22369.3 23292.4 19706.7 19062.6 18422.3 18837.4
          19999.6 21643.8 23056.5 23847.5 21553.5 21202 20875.9 21051.3 21737.1 22881.2 23947.2 24567.8
          23058.8 22860.8 22673.8 22751.7 23194.9 23982.2 24762.6 25233.7 23885.9 23750.4 23618.2 23667.8
          24009.1 24619.6 25245.3 25631.7 11524 10270.3 8660.78 8619.77 11293.7 14625.1 17270.3 18697.6
          10215.6 8230.5 5266.14 4607.37 8808.66 13401.1 16697.7 18384.4 8563.55 5279.27 -545.139 -2313.66
          5341.36 12009.2 16154.1 18139.4 8698.83 5116.13 -560.541 2635.16 7789.79 12950.2 16606.1 18464.7
          11877.9 9890.22 7609.64 8670.56 10859 14682.7 17717.1 19319.6 15556.2 14597.3 13592.1 13689.6
          14641.9 17090.5 19287 20512.5 18360.4 17865.2 17315.9 17210.7 17767.7 19265.1 20758.7 21641.9
          19840.5 19517.3 19134 19020.3 19443.3 20505.6 21629.9 22321.1 1461.54 -1421.23 -5716.44 -6868.83
          -1029.04 5627.32 10462.6 12948.7 -1675.01 -6918.92 -16780.1 -21693.4 -8933.37 2276.83 9043.45 12214.4
          -6499.16 -17270.6 -46410.9 -66576.9 -25534.1 -2683.86 7361.7 11470.4 -8037.77 -21853.9 -56487.4 -30395.1
          -13686.2 -60.347 8071.57 11840.7 -687.306 -7042.48 -15039.3 -10827.1 -8579.1 2579.68 9754.4 13120.5
          6975.32 4451.16 1780.36 1366.96 1261.85 7673.66 12604 15104 12215 11079.8 9746.09 8979.38
          9164.81 12346.8 15347.4 17027.5 14815.7 14129.5 13229.6 12632.2 12951.9 14890.2 16949.2 18183.7
          -11779 -17699.3 -27917.2 -32410 -19592.4 -6571.08 1873.47 5971.39 -18463.5 -31295.7 -64880.2 -92145.3
          -44881.9 -15041.1 -1246.81 4481.94 -31200.4 -68437.2 -322394 -690848 -162399 -32855.4 -5762.83 2727.02
          -41110 -108676 -555586 -128398 -63143.4 -22932.7 -4422.78 3104.09 -21768.2 -45839.8 -72780.4 -51808.1
          -74426.1 -22116.7 -2393.93 4919.05 -4917.19 -11654.4 -17272.5 -20576.4 -34073.1 -9392.65 3005.64 8210.89
          4745.71 2324.91 -397.22 -3270.03 -6118.72 1987.02 8287.61 11457.3 9113.67 7805.9 5987.29 4189.22
          3688.58 7465.26 11238.8 13381.6 -27547.5 -37386.6 -54799.3 -60705.6 -42904.8 -20998.1 -7866.05 -1767.11
          -38945.9 -61805.9 -122763 -148111 -105157 -38240.5 -13547.1 -4320.07 -65947.8 -152904 -700294 -710113
          -680403 -88625.7 -23324.2 -7647.1 -116408 -698013 -279795 -248335 -185894 -62035.9 -21328.2 -7341.14
          -57786.8 -216384 -103995 -139240 -677572 -85471.8 -20458.6 -4880.46 -19188.7 -38033.8 -37677.7 -62462.5
          -235513 -44883.4 -10035.8 399.339 -2764.11 -7352.41 -11505.7 -20532.3 -38148 -13043.4 37.7464 5595.22
          3755.1 1610.08 -1511.31 -5730.91 -8905.88 -1329.56 5176.84 8576.41 -44653.9 -58502.4 -82339.3 -85221.7
          -61273.7 -33885.4 -17196.8 -9346.64 -57294.1 -81627 -127522 -175794 -130595 -55304.6 -24828.3 -12908.5
          -85260 -156770 -292223 -714005 -693689 -115802 -38094.3 -17581.6 -123448 -582136 -715630 -749307
          -723390 -121944 -38801.4 -17136.4 -56083.6 -109475 -148675 -241465 -718823 -122018 -34294.3 -12922.5
          -22510 -35452.5 -52687.6 -113589 -674132 -85191.2 -21005.8 -5671.62 -6257.48 -11032.5 -19001 -36022.8
          -76111.4 -26131 -6194.31 1321.72 650.604 -1945.97 -6501.52 -13213.2 -19504.6 -7891.73 882.845 5197.04
          -66705.7 -93646.7 -162690 -116202 -74785.1 -45161.8 -25575.8 -16045.1 -78628.9 -111262 -198513 -201261
          -120271 -69702.1 -35424 -20661 -100930 -179560 -746313 -712964 -264030 -137068 -52356.1 -26322.9
          -83259.4 -165213 -716275 -719262 -270249 -102819 -43500.2 -22446.8 -43951.3 -68134.7 -139699 -522792
          -700259 -106522 -33712 -15103.5 -19296.8 -27978.3 -46785.8 -89907.9 -124087 -45783.3 -16795.6 -6148.84
          -5741.06 -9618.27 -17012.1 -28357.6 -35461.8 -17020.4 -4790.11 923.96 404.625 -1903.14 -6006 -10924.4
          -12671.5 -5490.67 1123.78 4712.4 -99936.2 -176508 -728549 -190809 -98625.5 -59489 -33119.3 -21072.4
          -116231 -158926 -310466 -258260 -181620 -121068 -50128.6 -27340.8 -162189 -199562 -727160 -715858
          -722884 -683511 -96373.5 -35817.9 -80544.5 -103542 -209148 -713728 -234788 -124942 -48301.8 -24471.4
          -38106.8 -48527.9 -76692.8 -141160 -123777 -55963.2 -25288 -12979.6 -15611.4 -20489.8 -30684.3 -45782.4
          -45833.5 -24444.1 -10323.5 -3614.21 -3571 -6122.65 -10760.4 -16040.3 -16210.8 -8047.64 -942.612 2883.19
          1883.02 227.618 -2553.25 -5213.24 -5042.54 -743.529 3664.75 6240.22 -132205 -222234 -740906 -202660
          -98992.6 -57244.9 -33193.2 -21803.1 -199774 -250109 -735369 -285182 -153077 -86156.9 -44404.8 -26691.6
          -711002 -239918 -313977 -714978 -404768 -163671 -61252.4 -30980.6 -122080 -97167.1 -123190 -197334
          -161966 -79577.4 -37822.7 -20892.3 -39562.8 -41215.6 -52348.7 -70345.2 -64900.1 -37021.7 -18394.8 -9526.62
          -13077.2 -15499.6 -20722.6 -26673.8 -25096 -14306.6 -5350.4 -599.697 -1192.85 -2773.81 -5489.52 -7925.67
          -7038.98 -2140.83 2608 5339.96 3895.67 2785.25 1043.27 -281.625 405.694 3343.77 6453.57 8336.99
          -127268 -180840 -274993 -154734 -94980.7 -57135.5 -31948.9 -20406.4 -181652 -313691 -738314 -281666
          -182598 -108857 -46032.8 -25262.2 -342290 -715909 -717770 -717479 -750768 -546752 -81514.4 -30564.1
          -89188.1 -124669 -146683 -187940 -659798 -120994 -40097.5 -18744.8 -31983.3 -39183.7 -48194.7 -60616
          -89391.6 -38410.8 -15902.3 -6863.1 -9409.29 -12005.6 -15957.2 -20000.8 -21851.8 -10681.3 -2332.89 1887.78
          1321.72 35.8325 -1911.88 -3418.77 -2812.54 1304.44 5239.11 7493.19 5959.73 5124.75 3914.23 3168.4
          3898.81 6267.36 8751.57 10262.7 -113500 -188419 -214928 -133204 -82571 -47114.1 -26465.8 -16846.4
          -171440 -721885 -731517 -258732 -155241 -70263.4 -33994.5 -19714.9 -116954 -218291 -737736 -711525
          -717733 -134617 -44631.6 -21350 -54253.4 -77359.5 -132530 -165375 -450282 -81543.5 -28616.6 -13418.4
          -22269.8 -29233.7 -41494.3 -51422.3 -68437.5 -28868.5 -11029.5 -3654.42 -5304.35 -7914.06 -12004.3 -15188.2
          -15833.1 -6517.69 519.75 4115.41 3757.79 2562.24 814.057 -314.512 421.859 3944.15 7305.52 9238.75
          7843.71 7119.26 6115.11 5599.65 6335.95 8377.13 10499.7 11792.3 -76728.9 -104641 -133027 -116536
          -70438.1 -39658.1 -21962.8 -13682.5 -90947.1 -164880 -252988 -225338 -104838 -51245.3 -26001 -15260.6
          -72193.6 -144732 -718017 -711941 -180596 -66353.5 -28810.5 -15134 -38304.3 -59262.3 -120337 -138134
          -102073 -44316.9 -19270.9 -9165.39 -15712.1 -22615.1 -35776.6 -42309.9 -36829.8 -18809.6 -6880.33 -1156.38
          -2060.44 -4701.49 -8911.27 -11391.8 -9596.94 -2991.92 2655.04 5717.61 5732.28 4543.54 2809.93 1828.94
          2801.97 5780.56 8714.1 10436.7 9353.99 8653.64 7688.4 7217.49 7930.25 9751.7 11660 12830.3
          -54864.6 -71873.1 -104699 -153015 -76302.4 -39015 -20411 -12161.6 -59997.9 -92868.7 -194306 -711459
          -137300 -52291.6 -24304 -13557.9 -53460.3 -114339 -662681 -710864 -184921 -64330.7 -26694 -13397.1
          -29524.2 -48473.1 -106151 -138170 -121619 -47295.4 -18873.2 -8187.9 -11513.2 -18156.1 -31480.1 -41397.9
          -40234.1 -19553.8 -6507.92 -478.89 149.098 -2510.03 -6985.2 -10446.5 -9756.78 -2782.06 3140.07 6297.93
          7086.37 5864.23 3994.92 2689.21 3317.28 6283.27 9245.4 10977 10379.1 9657.74 8624.03 8012.73
          8569.79 10323.7 12199.3 13351.6 -44278.2 -56483.7 -79334.1 -103363 -71097.4 -38797.2 -20265.6 -11840.3
          -46267.6 -65586.8 -112017 -211424 -138004 -56934.6 -25567.1 -13672 -40563.7 -67761.9 -168382 -710679
          -669838 -105472 -33079.5 -14626.9 -23791.7 -36890.4 -70554 -161342 -700797 -95174.7 -26192.2 -9697.95
          -9034.93 -14811.4 -26857.2 -47278.7 -83995.8 -30398.5 -9153.79 -1159.6 1334.76 -1255.64 -5961.15 -11744.5
          -15879.1 -5248.92 2401.58 6129.01 7758.63 6508.87 4470.37 2572.3 2367.08 5809.36 9141 11025.8
          10863.8 10115.3 8990.92 8175.38 8511.41 10319.6 12278.8 13473.7
        </DataArray>
        <DataArray type="Float32" Name="saturation" NumberOfComponents="1" format="ascii">
          0.297472 0.297484 0.29751 0.297554 0.297614 0.297678 0.297734 0.297766 0.297489 0.2975 0.297526 0.297569
          0.297628 0.297692 0.297747 0.297779 0.297525 0.297536 0.297561 0.297603 0.297659 0.297722 0.297775 0.297806
          0.297582 0.297592 0.297615 0.297655 0.297708 0.297767 0.297817 0.297846 0.297655 0.297664 0.297686 0.297722
          0.297771 0.297824 0.297869 0.297896 0.297731 0.29774 0.29776 0.297792 0.297836 0.297883 0.297924 0.297947
          0.297796 0.297804 0.297822 0.297851 0.29789 0.297933 0.297969 0.29799 0.297832 0.29784 0.297857 0.297884
          0.297921 0.297961 0.297995 0.298015 0.296981 0.296992 0.297022 0.297077 0.297155 0.297243 0.297319 0.297363
          0.296999 0.29701 0.297039 0.297093 0.29717 0.297258 0.297333 0.297377 0.297041 0.297051 0.297079 0.297131
          0.297207 0.297292 0.297366 0.297409 0.297111 0.297121 0.297148 0.297197 0.297268 0.297348 0.297417 0.297458
          0.297206 0.297216 0.29724 0.297285 0.297349 0.297421 0.297484 0.29752 0.297309 0.297317 0.29734 0.29738
          0.297436 0.297499 0.297555 0.297587 0.297395 0.297404 0.297424 0.29746 0.29751 0.297565 0.297614 0.297643
          0.297445 0.297453 0.297472 0.297505 0.297552 0.297603 0.297649 0.297675 0.296049 0.296058 0.296092 0.296168
          0.296288 0.296429 0.296553 0.296625 0.296067 0.296075 0.296107 0.296183 0.296303 0.296444 0.296569 0.296641
          0.296118 0.296124 0.296155 0.296229 0.296347 0.296487 0.296609 0.29668 0.296218 0.296224 0.296253 0.296323
          0.296434 0.296565 0.29668 0.296747 0.296362 0.296369 0.296396 0.296459 0.296559 0.296675 0.296778 0.296838
          0.296523 0.29653 0.296556 0.296611 0.296696 0.296796 0.296885 0.296937 0.296661 0.296669 0.296692 0.296741
          0.296814 0.2969 0.296976 0.297022 0.29674 0.296748 0.296771 0.296815 0.296881 0.296959 0.297029 0.297071
          0.294584 0.29458 0.29461 0.294719 0.294915 0.295155 0.295368 0.295493 0.294593 0.294585 0.294611 0.294719
          0.294919 0.295165 0.295382 0.295509 0.294648 0.294636 0.294657 0.294764 0.294966 0.295212 0.29543 0.295557
          0.294792 0.294781 0.294802 0.294905 0.295095 0.295327 0.295532 0.295652 0.295025 0.29502 0.295043 0.295135
          0.2953 0.295501 0.295682 0.295788 0.295296 0.295295 0.295319 0.295397 0.295533 0.2957 0.295853 0.295943
          0.29553 0.295533 0.295556 0.295622 0.295734 0.295874 0.296002 0.296078 0.295665 0.295669 0.295692 0.295751
          0.295851 0.295974 0.296089 0.296157 0.292453 0.29241 0.292408 0.292555 0.292882 0.293298 0.293671 0.293888
          0.292426 0.29237 0.29235 0.292496 0.292842 0.293282 0.293671 0.293897 0.29246 0.292388 0.29235 0.292497
          0.292861 0.293318 0.293718 0.293948 0.292661 0.292593 0.292563 0.292716 0.293057 0.293483 0.29386 0.294078
          0.293047 0.293 0.292991 0.293124 0.293406 0.293767 0.294093 0.294285 0.293512 0.293485 0.293489 0.293595
          0.293814 0.294102 0.29437 0.294529 0.293915 0.293901 0.293912 0.293996 0.294168 0.294398 0.294615 0.294747
          0.294148 0.294139 0.294152 0.294225 0.294373 0.294571 0.29476 0.294875 0.289499 0.289357 0.289247 0.289424
          0.289978 0.290706 0.291353 0.291728 0.289373 0.289184 0.28901 0.289175 0.2898 0.290607 0.291308 0.291708
          0.289309 0.28906 0.288809 0.288978 0.289687 0.290573 0.291321 0.291743 0.289568 0.289327 0.289109 0.289347
          0.289998 0.290812 0.291514 0.291914 0.290219 0.290053 0.289928 0.290119 0.290613 0.291276 0.291874 0.292222
          0.291024 0.290926 0.290861 0.290992 0.291342 0.291846 0.29232 0.292604 0.291719 0.29166 0.291626 0.291719
          0.291974 0.292355 0.292726 0.292953 0.292115 0.292074 0.292053 0.292128 0.292338 0.292653 0.292967 0.29316
          0.285577 0.285215 0.284829 0.284982 0.285935 0.287205 0.288311 0.288943 0.28522 0.284707 0.284092 0.284176
          0.285372 0.286891 0.288153 0.288855 0.284873 0.284147 0.283192 0.283232 0.284804 0.286628 0.288056 0.288829
          0.285142 0.284408 0.283547 0.284036 0.28538 0.286985 0.288305 0.289038 0.286264 0.285787 0.285318 0.285621
          0.286484 0.287738 0.28885 0.289486 0.287668 0.287397 0.287147 0.287281 0.28781 0.28871 0.289567 0.290076
          0.288852 0.288694 0.288545 0.288607 0.28896 0.289596 0.290236 0.290628 0.289518 0.289408 0.289301 0.289341
          0.289618 0.290118 0.290638 0.290962 0.280615 0.279822 0.27883 0.278805 0.280468 0.282654 0.284489 0.285519
          0.279788 0.27857 0.276827 0.276451 0.27892 0.281835 0.284084 0.285291 0.278771 0.276834 0.27365 0.272741
          0.27687 0.280926 0.283704 0.285113 0.278853 0.276741 0.273642 0.275351 0.278305 0.281538 0.28402 0.285349
          0.280842 0.279586 0.278197 0.278836 0.280192 0.282693 0.284809 0.285977 0.28329 0.282635 0.281962 0.282027
          0.282666 0.284362 0.285953 0.28687 0.285273 0.284915 0.284522 0.284447 0.284845 0.285936 0.287058 0.287736
          0.286364 0.286123 0.28584 0.285756 0.286068 0.286865 0.287727 0.288267 0.274713 0.273196 0.271059 0.27051
          0.273399 0.277035 0.279943 0.281537 0.273066 0.270486 0.266142 0.264189 0.269548 0.275155 0.279064 0.281059
          0.270685 0.265941 0.255996 0.250791 0.262749 0.272553 0.27805 0.280581 0.269961 0.264128 0.253262 0.261023
          0.26744 0.273904 0.278474 0.280818 0.273576 0.270427 0.266865 0.268691 0.269711 0.275321 0.279501 0.28165
          0.277821 0.276363 0.274885 0.274662 0.274606 0.278236 0.281312 0.28298 0.281059 0.280332 0.279496 0.279024
          0.279138 0.281145 0.283146 0.284317 0.282783 0.28232 0.281722 0.28133 0.281539 0.282834 0.284262 0.285145
          0.268268 0.265767 0.26189 0.260338 0.265009 0.270651 0.274936 0.277234 0.265458 0.260715 0.25119 0.245481
          0.256438 0.266865 0.273286 0.27638 0.260747 0.250362 0.223105 0.211485 0.235352 0.260188 0.271037 0.275402
          0.257559 0.242612 0.214515 0.23963 0.251605 0.263717 0.271688 0.275609 0.264161 0.25616 0.249388 0.254495
          0.249029 0.264027 0.2727 0.276628 0.271446 0.268323 0.26594 0.264622 0.259784 0.269338 0.275555 0.278558
          0.27653 0.275181 0.273727 0.272259 0.270866 0.274997 0.278604 0.280572 0.279107 0.278315 0.277243 0.276215
          0.275934 0.278111 0.280433 0.281822 0.262021 0.258714 0.2537 0.252199 0.25702 0.264458 0.270041 0.273019
          0.258224 0.251929 0.240439 0.237036 0.243191 0.258445 0.2675 0.271739 0.250938 0.236454 0.211305 0.21112
          0.211689 0.246143 0.263569 0.270143 0.241391 0.211348 0.225545 0.227648 0.232881 0.251873 0.26433 0.270287
          0.252929 0.230119 0.243386 0.238161 0.211745 0.246753 0.264668 0.271464 0.265169 0.258509 0.258622 0.251769
          0.228594 0.256437 0.269046 0.274146 0.272513 0.270282 0.268389 0.264639 0.258474 0.267717 0.273955 0.277016
          0.275971 0.274793 0.27315 0.271052 0.26956 0.273243 0.276776 0.278779 0.256504 0.252748 0.247376 0.246802
          0.252059 0.259846 0.265971 0.269359 0.253055 0.24752 0.239754 0.233902 0.239324 0.253568 0.263008 0.267775
          0.246795 0.235997 0.22479 0.211048 0.21143 0.241484 0.25849 0.265814 0.240339 0.213845 0.211019 0.21042
          0.210877 0.240559 0.258269 0.265996 0.253366 0.242482 0.236966 0.228148 0.21096 0.240548 0.259712 0.267769
          0.263877 0.259334 0.254259 0.241828 0.211813 0.246808 0.264455 0.271081 0.2708 0.268599 0.265243 0.259149
          0.248667 0.262531 0.27083 0.274638 0.274279 0.272928 0.270684 0.267643 0.265043 0.270029 0.274403 0.276787
          0.250761 0.245204 0.235319 0.241423 0.248952 0.256356 0.262734 0.266445 0.248137 0.242195 0.231683 0.231433
          0.240807 0.250074 0.259343 0.264589 0.243909 0.233514 0.210471 0.211068 0.226563 0.238447 0.254348 0.262462
          0.247192 0.235038 0.211007 0.210952 0.226153 0.243585 0.256843 0.263901 0.25671 0.250431 0.238101 0.215405
          0.211305 0.242965 0.259904 0.266838 0.265126 0.261868 0.255889 0.245899 0.240246 0.256177 0.266135 0.270852
          0.271048 0.269235 0.266047 0.261734 0.259331 0.266043 0.271508 0.274425 0.274149 0.272949 0.27092 0.268647
          0.267878 0.271168 0.274532 0.276511 0.244081 0.233828 0.210784 0.232404 0.24431 0.252501 0.2601 0.264429
          0.241418 0.235748 0.223748 0.226953 0.233306 0.240689 0.254953 0.262095 0.235376 0.231587 0.210809 0.211014
          0.210886 0.211628 0.24471 0.259215 0.247741 0.243463 0.230735 0.211054 0.22865 0.240122 0.255461 0.26314
          0.258487 0.255397 0.248544 0.237912 0.240291 0.253397 0.262839 0.267744 0.266626 0.264656 0.260924 0.256177
          0.256162 0.26315 0.268916 0.272088 0.272109 0.270865 0.26872 0.266447 0.266377 0.269957 0.273443 0.275488
          0.274941 0.274055 0.272619 0.271303 0.271385 0.273547 0.275921 0.27739 0.239102 0.229637 0.210565 0.231307
          0.244246 0.253067 0.260076 0.264147 0.231568 0.227521 0.210663 0.225213 0.236433 0.246619 0.256577 0.262328
          0.211104 0.228263 0.223555 0.211031 0.219349 0.235209 0.252064 0.260822 0.240539 0.244568 0.240377 0.231791
          0.235401 0.24794 0.258576 0.264499 0.258033 0.257527 0.25435 0.249929 0.251185 0.25883 0.265486 0.269277
          0.267702 0.266672 0.264565 0.262335 0.26291 0.267175 0.271236 0.273621 0.273314 0.272508 0.271169 0.270013
          0.270429 0.272828 0.275336 0.276869 0.27605 0.275434 0.274489 0.273788 0.274149 0.275742 0.277514 0.278634
          0.23979 0.233384 0.225848 0.236236 0.244961 0.253095 0.260493 0.264689 0.233302 0.223571 0.210611 0.225429
          0.233207 0.242582 0.256105 0.262848 0.222096 0.211013 0.210979 0.210985 0.210395 0.214748 0.247543 0.260965
          0.246036 0.240162 0.237212 0.232681 0.212104 0.2407 0.257868 0.265346 0.260481 0.25815 0.255491 0.252221
          0.245997 0.258391 0.266504 0.270512 0.26933 0.268169 0.266482 0.264848 0.264129 0.268756 0.272731 0.274943
          0.274638 0.273954 0.272945 0.272185 0.272489 0.274629 0.276811 0.278128 0.277227 0.276746 0.27606 0.275645
          0.276052 0.277406 0.278886 0.279818 0.241842 0.232634 0.230241 0.238966 0.24733 0.255796 0.26241 0.266115
          0.234361 0.210904 0.210731 0.226921 0.236177 0.249948 0.25981 0.26496 0.241308 0.22996 0.210621 0.211094
          0.21098 0.238774 0.256511 0.264322 0.253843 0.248403 0.239058 0.23502 0.217668 0.247537 0.261642 0.267555
          0.263969 0.261426 0.257443 0.2546 0.250362 0.261554 0.2686 0.272068 0.271258 0.270019 0.268169 0.266803
          0.266533 0.270676 0.27421 0.276173 0.275973 0.275311 0.274366 0.27377 0.274158 0.276077 0.278016 0.279183
          0.278337 0.277906 0.277317 0.277019 0.277446 0.278658 0.279966 0.280787 0.248536 0.243278 0.23899 0.241372
          0.249908 0.258003 0.264086 0.267441 0.245704 0.235075 0.227318 0.229387 0.243245 0.254648 0.262578 0.266772
          0.249517 0.237457 0.210975 0.211087 0.233409 0.250843 0.261574 0.266826 0.258425 0.252557 0.240797 0.238306
          0.243712 0.256603 0.265136 0.269441 0.266584 0.263837 0.259229 0.257197 0.258891 0.26532 0.270504 0.273333
          0.272869 0.271552 0.269558 0.26844 0.269245 0.272398 0.275362 0.277087 0.277095 0.276415 0.275447 0.274912
          0.275443 0.277123 0.278863 0.279926 0.279254 0.278826 0.278244 0.277964 0.278389 0.2795 0.280702 0.28146
          0.253683 0.249588 0.243268 0.236441 0.248627 0.258203 0.264687 0.268101 0.252374 0.245347 0.232073 0.211095
          0.238416 0.254365 0.263202 0.267495 0.254053 0.241711 0.212045 0.211107 0.232976 0.25132 0.262327 0.267564
          0.261325 0.255413 0.243026 0.238301 0.240607 0.255744 0.265294 0.269892 0.268386 0.265582 0.260652 0.257472
          0.257826 0.265024 0.270681 0.273684 0.274014 0.272641 0.270455 0.268861 0.269172 0.272504 0.275629 0.277424
          0.277887 0.277171 0.276106 0.275381 0.275728 0.277415 0.279187 0.280267 0.27989 0.279441 0.278808 0.278439
          0.278775 0.279856 0.281049 0.281803 0.256614 0.253263 0.24799 0.243493 0.249761 0.25827 0.264744 0.268242
          0.256037 0.251023 0.242075 0.230539 0.238323 0.253147 0.262737 0.267446 0.257725 0.250517 0.23469 0.21111
          0.211899 0.243139 0.260114 0.267039 0.263394 0.258871 0.249882 0.235472 0.211295 0.244926 0.262509 0.269199
          0.269501 0.266961 0.262269 0.255749 0.247045 0.261022 0.269447 0.273331 0.274645 0.273282 0.270942 0.268284
          0.266514 0.271285 0.275223 0.277325 0.278286 0.277547 0.276374 0.275317 0.275204 0.27714 0.279123 0.280298
          0.280195 0.279726 0.279032 0.278537 0.27874 0.279853 0.281101 0.281883
        </DataArray>
        <DataArray type="Float32" Name="process rank" NumberOfComponents="1" format="ascii">
          0 0 0 0 0 0 0 0 0 0 0 0
          0 0 0 0 0 0 0 0 0 0 0 0
          0 0 0 0 0 0 0 0 0 0 0 0
          0 0 0 0 0 0 0 0 0 0 0 0
          0 0 0 0 0 0 0 0 0 0 0 0
          0 0 0 0 0 0 0 0 0 0 0 0
          0 0 0 0 0 0 0 0 0 0 0 0
          0 0 0 0 0 0 0 0 0 0 0 0
          0 0 0 0 0 0 0 0 0 0 0 0
          0 0 0 0 0 0 0 0 0 0 0 0
          0 0 0 0 0 0 0 0 0 0 0 0
          0 0 0 0 0 0 0 0 0 0 0 0
          0 0 0 0 0 0 0 0 0 0 0 0
          0 0 0 0 0 0 0 0 0 0 0 0
          0 0 0 0 0 0 0 0 0 0 0 0
          0 0 0 0 0 0 0 0 0 0 0 0
          0 0 0 0 0 0 0 0 0 0 0 0
          0 0 0 0 0 0 0 0 0 0 0 0
          0 0 0 0 0 0 0 0 0 0 0 0
          0 0 0 0 0 0 0 0 0 0 0 0
          0 0 0 0 0 0 0 0 0 0 0 0
          0 0 0 0 0 0 0 0 0 0 0 0
          0 0 0 0 0 0 0 0 0 0 0 0
          0 0 0 0 0 0 0 0 0 0 0 0
          0 0 0 0 0 0 0 0 0 0 0 0
          0 0 0 0 0 0 0 0 0 0 0 0
          0 0 0 0 0 0 0 0 0 0 0 0
          0 0 0 0 0 0 0 0 0 0 0 0
          0 0 0 0 0 0 0 0 0 0 0 0
          0 0 0 0 0 0 0 0 0 0 0 0
          0 0 0 0 0 0 0 0 0 0 0 0
          0 0 0 0 0 0 0 0 0 0 0 0
          0 0 0 0 0 0 0 0 0 0 0 0
          0 0 0 0 0 0 0 0 0 0 0 0
          0 0 0 0 0 0 0 0 0 0 0 0
          0 0 0 0 0 0 0 0 0 0 0 0
          0 0 0 0 0 0 0 0 0 0 0 0
          0 0 0 0 0 0 0 0 0 0 0 0
          0 0 0 0 0 0 0 0 0 0 0 0
          0 0 0 0 0 0 0 0 0 0 0 0
          0 0 0 0 0 0 0 0 0 0 0 0
          0 0 0 0 0 0 0 0 0 0 0 0
          0 0 0 0 0 0 0 0 0 0 0 0
          0 0 0 0 0 0 0 0 0 0 0 0
          0 0 0 0 0 0 0 0 0 0 0 0
          0 0 0 0 0 0 0 0 0 0 0 0
          0 0 0 0 0 0 0 0 0 0 0 0
          0 0 0 0 0 0 0 0 0 0 0 0
          0 0 0 0 0 0 0 0 0 0 0 0
          0 0 0 0 0 0 0 0 0 0 0 0
          0 0 0 0 0 0 0 0 0 0 0 0
          0 0 0 0 0 0 0 0 0 0 0 0
          0 0 0 0 0 0 0 0 0 0 0 0
          0 0 0 0 0 0 0 0 0 0 0 0
          0 0 0 0 0 0 0 0 0 0 0 0
          0 0 0 0 0 0 0 0 0 0 0 0
          0 0 0 0 0 0 0 0 0 0 0 0
          0 0 0 0 0 0 0 0 0 0 0 0
          0 0 0 0 0 0 0 0 0 0 0 0
          0 0 0 0 0 0 0 0 0 0 0 0
          0 0 0 0 0 0 0 0 0 0 0 0
          0 0 0 0 0 0 0 0 0 0 0 0
          0 0 0 0 0 0 0 0 0 0 0 0
          0 0 0 0 0 0 0 0 0 0 0 0
          0 0 0 0 0 0 0 0 0 0 0 0
          0 0 0 0 0 0 0 0 0 0 0 0
          0 0 0 0 0 0 0 0 0 0 0 0
          0 0 0 0 0 0 0 0 0 0 0 0
          0 0 0 0 0 0 0 0 0 0 0 0
          0 0 0 0 0 0 0 0 0 0 0 0
          0 0 0 0 0 0 0 0 0 0 0 0
          0 0 0 0 0 0 0 0 0 0 0 0
          0 0 0 0 0 0 0 0 0 0 0 0
          0 0 0 0 0 0 0 0 0 0 0 0
          0 0 0 0 0 0 0 0 0 0 0 0
          0 0 0 0 0 0 0 0 0 0 0 0
          0 0 0 0 0 0 0 0 0 0 0 0
          0 0 0 0 0 0 0 0 0 0 0 0
          0 0 0 0 0 0 0 0 0 0 0 0
          0 0 0 0 0 0 0 0 0 0 0 0
          0 0 0 0 0 0 0 0 0 0 0 0
          0 0 0 0 0 0 0 0 0 0 0 0
          0 0 0 0 0 0 0 0 0 0 0 0
          0 0 0 0 0 0 0 0 0 0 0 0
          0 0 0 0 0 0 0 0 0 0 0 0
          0 0 0 0 0 0 0 0 0 0 0 0
          0 0 0 0 0 0 0 0 0 0 0 0
          0 0 0 0 0 0 0 0 0 0 0 0
          0 0 0 0 0 0 0 0 0 0 0 0
          0 0 0 0 0 0 0 0 0 0 0 0
          0 0 0 0 0 0 0 0 0 0 0 0
          0 0 0 0 0 0 0 0 0 0 0 0
          0 0 0 0 0 0 0 0 0 0 0 0
          0 0 0 0 0 0 0 0 0 0 0 0
          0 0 0 0 0 0 0 0 0 0 0 0
          0 0 0 0 0 0 0 0 0 0 0 0
          0 0 0 0 0 0 0 0 0 0 0 0
          0 0 0 0 0 0 0 0 0 0 0 0
          0 0 0 0 0 0 0 0 0 0 0 0
          0 0 0 0 0 0 0 0 0 0 0 0
          0 0 0 0 0 0 0 0 0 0 0 0
          0 0 0 0 0 0 0 0 0 0 0 0
          0 0 0 0 0 0 0 0 0 0 0 0
          0 0 0 0 0 0 0 0 0 0 0 0
          0 0 0 0 0 0 0 0 0 0 0 0
          0 0 0 0 0 0 0 0 0 0 0 0
          0 0 0 0 0 0 0 0
        </DataArray>
      </CellData>
      <Points>
        <DataArray type="Float32" Name="Coordinates" NumberOfComponents="3" format="ascii">
          -0.04 -0.04 -0.2 -0.03 -0.04 -0.2 -0.04 -0.03 -0.2 -0.03 -0.03 -0.2
          -0.04 -0.04 -0.19 -0.03 -0.04 -0.19 -0.04 -0.03 -0.19 -0.03 -0.03 -0.19
          -0.02 -0.04 -0.2 -0.02 -0.03 -0.2 -0.02 -0.04 -0.19 -0.02 -0.03 -0.19
          -0.01 -0.04 -0.2 -0.01 -0.03 -0.2 -0.01 -0.04 -0.19 -0.01 -0.03 -0.19
          0 -0.04 -0.2 0 -0.03 -0.2 0 -0.04 -0.19 0 -0.03 -0.19
          0.01 -0.04 -0.2 0.01 -0.03 -0.2 0.01 -0.04 -0.19 0.01 -0.03 -0.19
          0.02 -0.04 -0.2 0.02 -0.03 -0.2 0.02 -0.04 -0.19 0.02 -0.03 -0.19
          0.03 -0.04 -0.2 0.03 -0.03 -0.2 0.03 -0.04 -0.19 0.03 -0.03 -0.19
          0.04 -0.04 -0.2 0.04 -0.03 -0.2 0.04 -0.04 -0.19 0.04 -0.03 -0.19
          -0.04 -0.02 -0.2 -0.03 -0.02 -0.2 -0.04 -0.02 -0.19 -0.03 -0.02 -0.19
          -0.02 -0.02 -0.2 -0.02 -0.02 -0.19 -0.01 -0.02 -0.2 -0.01 -0.02 -0.19
          0 -0.02 -0.2 0 -0.02 -0.19 0.01 -0.02 -0.2 0.01 -0.02 -0.19
          0.02 -0.02 -0.2 0.02 -0.02 -0.19 0.03 -0.02 -0.2 0.03 -0.02 -0.19
          0.04 -0.02 -0.2 0.04 -0.02 -0.19 -0.04 -0.01 -0.2 -0.03 -0.01 -0.2
          -0.04 -0.01 -0.19 -0.03 -0.01 -0.19 -0.02 -0.01 -0.2 -0.02 -0.01 -0.19
          -0.01 -0.01 -0.2 -0.01 -0.01 -0.19 0 -0.01 -0.2 0 -0.01 -0.19
          0.01 -0.01 -0.2 0.01 -0.01 -0.19 0.02 -0.01 -0.2 0.02 -0.01 -0.19
          0.03 -0.01 -0.2 0.03 -0.01 -0.19 0.04 -0.01 -0.2 0.04 -0.01 -0.19
          -0.04 0 -0.2 -0.03 0 -0.2 -0.04 0 -0.19 -0.03 0 -0.19
          -0.02 0 -0.2 -0.02 0 -0.19 -0.01 0 -0.2 -0.01 0 -0.19
          0 0 -0.2 0 0 -0.19 0.01 0 -0.2 0.01 0 -0.19
          0.02 0 -0.2 0.02 0 -0.19 0.03 0 -0.2 0.03 0 -0.19
          0.04 0 -0.2 0.04 0 -0.19 -0.04 0.01 -0.2 -0.03 0.01 -0.2