<?xml version="1.0"?>
<VTKFile type="UnstructuredGrid" version="0.1" byte_order="LittleEndian">
  <UnstructuredGrid>
    <Piece NumberOfCells="960" NumberOfPoints="1296">
      <CellData Scalars="p (Pa)">
        <DataArray type="Float32" Name="p (Pa)" NumberOfComponents="1" format="ascii">
          36520.3 35869.8 31380.7 3385.73 28764.9 22137.4 33648.2 36085.8 36162.6 35806.5 32476.2 19627
          27123.7 24257.9 30851.6 35651.1 33602.8 34488.6 25797.5 -60821.5 -442.008 -2227.47 31684.2 35923.6
          17873.2 33191.9 33555.2 25350.3 27539.3 31435.7 35539.8 36474.6 33639.4 35711.2 36026.9 35129.2
          35354.6 35951.2 36496.3 36652.2 36227.2 36502.6 36578.9 36487.5 36499.4 36592.1 36665.8 36688.9
          36632.3 36665.7 36678.3 36669.1 36666.9 36681.3 36691.7 36695 36687.6 36691.6 36693.4 36692.3
          36691.3 36693.7 36695.4 36695.9 36334 35193.7 25886 -64939.9 20883.3 1070.99 31048.4 35645.3
          35776.9 34953.4 27676.6 -19674.3 11855.2 -29346.3 22794.7 34731.7 31618.7 32660 19226.4 -143870
          -69259.1 19585.5 32944.5 35911.4 739.791 27785.3 31034 19247.9 24938.2 33203.1 35788.2 36427.4
          30783.1 34107.9 35267.2 34289 34964.8 36017 36449.2 36564.5 35681 36101.1 36334.5 36237.2
          36188.2 36451.1 36562.6 36590.4 36470.7 36519.1 36553.2 36536.6 36504.7 36561.7 36589.2 36596.1
          36580.8 36586.2 36590.5 36586.7 36578.7 36589.8 36595.9 36597.5 36244.1 35388.5 29950.3 -2252.5
          25316.9 27222.8 33878.6 35942.3 35457.3 33791.4 21283.2 -114481 -13366.9 -4946.07 27729.8 35195.5
          30402.3 27627.3 11953.5 -202164 -28238.9 25150.9 34040 36024.5 -6259.72 -14904.3 21564 13494.2
          26986.2 34006.2 35932.8 36381.5 20590.7 26770.5 32626.6 33007.3 34478.4 35881.1 36359.3 36470.8
          34345.5 34800.8 35667.3 35522.4 34335.1 35923.2 36392.8 36481.9 36218.5 36248.4 36349.1 36268.7
          35963.3 36321.2 36462.6 36493.2 36463 36464.2 36473.7 36451.7 36393.8 36458.6 36490.3 36498
          36205.9 35708.5 33534 26295.3 29831.6 29536.3 34689.2 36050.4 35434.4 33618.8 26462.3 -17995.1
          1841.09 -9178.82 30613.7 35540 30956.4 21821.2 5309.32 -221005 5827.59 27345.2 34554.6 36061.6
          5120.36 -95395.5 -43291.2 7206.46 28188.1 34135.9 35913.4 36306.3 26784.8 -3594.33 23603.6 30355.9
          31415.1 35026.5 36134.2 36355 34455 31385.8 33871.1 32611.6 18483.5 33352.4 35949.9 36337.8
          36091.9 35753 35950.5 35472.8 33408.8 35578.1 36250.5 36377.3 36356 36316.5 36324.2 36217.8
          35916.3 36232.4 36365.5 36395.2 36164.4 35791 34472.8 31403.4 31641.9 28954.7 34659.7 35997.9
          35623.1 33830.6 27496.3 9225.27 15587.6 -23945.8 29954.3 35475.8 33102.1 23672.7 -15077.3 -226439
          -29421.9 23910.8 34170.1 35953.2 24662.6 -38140 -154338 -11446.1 22162.8 32799.9 35625 36183.6
          24895.8 -62596.5 7309.36 24581.7 17541.2 32147 35611.3 36197.8 33900.4 26873.2 31174.4 23916.5
          -80505.3 25170.7 34982.5 36139.9 35920.3 35209.9 35411 33729.5 25393.9 33896.2 35912 36245.5
          36247.2 36168.2 36152.7 35848.3 34909.8 35870.8 36217.9 36289 36087.1 35732.3 34474.5 31238.4
          28586.5 32606 35376.8 36044.3 35672 34024 28141.7 6425.23 -29211.5 17355.9 33472.7 35789.3
          33825.9 25423.4 -2705.52 -255513 -61272.3 24616.5 34381.8 35900.4 27808.9 -31151.6 -1121.91 -99119.9
          8988.29 30808.2 35269.3 36047.5 30092.1 -3179.19 23873.4 14615.5 -65669.5 25403.4 34823.8 36020.7
          34796.5 31192.5 32790.5 24285.4 -58474.2 25383.6 34797.8 36020.6 35966.7 35539.2 35497.7 33693.1
          26287.8 33828.6 35797.6 36142.6 36168.6 36114.7 36074.3 35751.5 34865.7 35768.8 36116 36189.8
          35956.9 35467.8 33780.9 31669.7 33448.4 35020.9 35791.1 36030 35685.3 34251.3 28150.1 6921.9
          23920.5 32155 35028.4 35863.3 34705.4 29511.5 3998.15 -214123 -2995.14 29234 33631.5 35580.9
          32741.7 15149.4 -114695 -83632.7 -15781.3 28919 34776 35850.4 34370.5 29040.2 20761.8 13698.4
          -75773.7 24151.3 34549.8 35890.2 35654.3 34641.2 33124.3 24838.1 -57234.7 25178.9 34730.4 35927.8
          36022.6 35860.9 35542.6 33858 26977.2 33915.2 35734.5 36050.1 36093.2 36068 36005.7 35717.1
          34935.5 35724.7 36029 36093.7 35567.5 33925.4 27117 30876.8 34159.5 35263 35648.4 35904.6
          35275.2 33006.5 19774.8 10256.9 28117.2 32692.5 33876.9 35509.2 34259.9 29012.5 -13747.9 -236406
          3610.53 23424 21580.4 34070.9 34648.8 29602.6 -657.132 -173746 7095.71 29603.7 33474.2 35458.7
          35479.1 33936.3 28443.4 8678.7 -59307.2 26153.4 34618.9 35788 35875 35540.2 34476.9 30807.9
          21056.6 32572.9 35423.9 35916.4 35983.7 35925 35734 35059.1 33555.2 35246.7 35857.6 35983.1
          36004.9 35995.1 35961.6 35844.9 35621.9 35865.1 35976.9 36003.2 34516.3 27811.5 -33640.7 25152.4
          32977.2 34527.8 35479.6 35804.8 33700.6 30642.3 13450.2 6365.89 21787.4 26728.5 33496.4 35420.9
          28642.5 24292.4 -63429.8 -274792 -88520 -49767.6 23384.6 34202.5 33904.7 31521.2 12812 -148114
          7671.94 25057.5 33272.4 35390.5 35487.6 34805.7 31259.1 18412.2 20019.5 32347.7 35180.9 35769.1
          35836 35695.6 35091.2 33384.5 32651.2 34936.8 35707 35872.5 35899.7 35876.3 35784.3 35537.3
          35330.7 35705.3 35864.9 35902.2 35909.5 35905.8 35891.8 35854 35814 35872.1 35901.7 35909.3
          33642.2 27533.5 -16710.4 26313 33571.1 35093.8 35615.1 35765.3 28059.6 23577.5 -50166.8 6705.72
          27844.2 32643.3 34957.4 35624.6 -22435.4 16164.1 -8099.08 -227474 3953.98 23408.8 32980 35283.5
          29014.4 30844.6 24795.3 4339.67 24537.3 31745.7 34800.2 35600.4 34926.3 34863.8 33568.6 30441
          32316.9 34657.1 35535.5 35754.1 35703.7 35664.4 35440.7 34961.2 35059.6 35544.8 35748.4 35799.4
          35800.7 35793.1 35760.4 35692 35681.5 35761.9 35800.4 35810.4 35811.7 35810.5 35805.8 35795.9
          35791.4 35803.9 35810.8 35812.6 33257.4 24430.1 19926.3 29358.2 33563.9 35007.6 35553.2 35682.5
          29932.3 12931.6 -63284.7 4538.68 25172.1 31922.7 34966.3 35583.7 18071.2 -89007.4 -245951 -255355
          -30990.7 12682.9 32888.7 35327.8 31803.6 22998 11936.3 6506.19 3652.19 27875.9 34504.5 35527.8
          35064.7 34068 32664.1 31461.1 31610.1 34368.3 35442 35666 35626.6 35514.8 35335.3 35138.1
          35171 35510.7 35667.5 35705.6 35704.7 35692.9 35671.8 35645.2 35647.3 35687.3 35708 35713.6
          35713.9 35712.6 35710.1 35706.7 35706.4 35711.3 35714 35714.8 32876 22188.4 21947.8 28856.7
          33163.4 35001.1 35498.7 35596.2 28052.8 -27969.1 -84081.9 -2773.28 22451.6 32783.5 35130.6 35539.5
          30654.8 14392.6 -49796.6 -353036 -60166.2 24636.9 34134.5 35412.8 34216.8 30902.6 22113.5 1799.28
          15306.8 31582.9 34943.8 35511.9 35345.1 34792.7 33422 30991.6 32550 34763.2 35448.8 35587.5
          35575.9 35500.2 35315.7 35026.7 35193.8 35478.5 35586.4 35611.1 35611.8 35603 35581.6 35550.4
          35565.7 35598.3 35612.5 35616 35616.4 35615.4 35613 35609.7 35610.9 35614.6 35616.4 35616.8
          34705.5 32692.2 31164.5 29862.7 33560.1 35064.6 35438.3 35505.8 33595.1 26890.2 16247.9 2990.99
          26959.4 33746.1 35226.3 35474.3 33678 25536 -38389.3 -299150 3476.69 30403.2 34760.5 35411
          34921.3 32844.7 24119.7 5645.36 24463.9 32827.3 35031.6 35440.6 35391.6 35002.1 33631.3 31214.1
          33001.1 34766.8 35365.3 35491.8 35498.2 35440.2 35250.8 34937 35088.6 35373 35486.4 35512.7
          35516.1 35508.9 35486.3 35449.8 35459.9 35496.9 35513.6 35517.8 35518.5 35517.7 35515.1 35511
          35511.4 35515.9 35518.1 35518.7 35177 34457.3 32159 25689.7 32597.5 34825.3 35321.5 35405.5
          34770.4 32206 20481.6 -46692.3 22543.1 33093.7 35056.1 35367.2 34279.1 27807.9 -25124 -404144
          -4511.26 28931.8 34426.5 35276.9 35004 33116.7 23989.8 -3440.24 448.018 27858.6 34130.9 35225.3
          35325 34934.8 33284.4 29244.5 27919.6 33160.3 34972.4 35345.5 35404.2 35341.3 35088 34492.3
          34151.9 34975.6 35324 35403.2 35418.5 35410.1 35377.4 35301.4 35248.8 35354.3 35405.2 35417.8
          35420.5 35419.4 35415.4 35406.3 35399.3 35411.8 35418.5 35420.3 35209.7 34782.4 33067.6 29007.7
          32744.8 34677.6 35204.1 35303.3 34963.9 33338.9 25544 -2517.38 22670.2 32440.5 34818.5 35244.1
          34515.7 29967.3 -1325.76 -406953 -34681.8 23950.7 33518.8 35058 34978.7 33269.4 24207.3 -18605.3
          -388308 4107.8 31325.8 34795.2 35234.3 34819.6 32767.7 25287.6 4309.54 28165 34062.4 35127.8
          35306.1 35231.5 34873.9 33677.1 31367 34067.9 35068.6 35279.2 35320.2 35309.5 35259.7 35102.4
          34850.3 35148.6 35284 35315.5 35322.3 35320.9 35314.6 35295.5 35268.5 35300.6 35317.4 35321.6
        </DataArray>
        <DataArray type="Float32" Name="saturation" NumberOfComponents="1" format="ascii">
          0.301363 0.300664 0.296127 0.275766 0.293695 0.288123 0.298358 0.300895 0.300977 0.300597 0.29719 0.286205
          0.29224 0.289821 0.295623 0.300431 0.298312 0.299216 0.291102 0.25217 0.273704 0.272784 0.296419 0.300721
          0.284921 0.297899 0.298264 0.290726 0.292604 0.29618 0.300314 0.301314 0.298349 0.300495 0.300832 0.299881
          0.300118 0.300751 0.301337 0.301507 0.301047 0.301344 0.301427 0.301328 0.301341 0.301441 0.301521 0.301547
          0.301485 0.301521 0.301535 0.301525 0.301523 0.301538 0.30155 0.301553 0.301545 0.30155 0.301552 0.30155
          0.301549 0.301552 0.301554 0.301554 0.301162 0.299949 0.291177 0.251176 0.287153 0.274503 0.29581 0.300425
          0.300565 0.299698 0.292724 0.264976 0.280827 0.261387 0.288641 0.299467 0.296356 0.297371 0.285908 0.237565
          0.250175 0.286174 0.297653 0.300708 0.274327 0.29282 0.295796 0.285924 0.290382 0.29791 0.300577 0.301263
          0.295559 0.298825 0.300026 0.29901 0.299709 0.300821 0.301286 0.301411 0.300463 0.300911 0.301163 0.301058
          0.301005 0.301289 0.301409 0.30144 0.30131 0.301362 0.301399 0.301381 0.301347 0.301408 0.301438 0.301446
          0.301429 0.301435 0.30144 0.301436 0.301427 0.301439 0.301445 0.301447 0.301065 0.300154 0.294779 0.272772
          0.290698 0.292326 0.298591 0.300741 0.300226 0.298503 0.287459 0.241689 0.267577 0.271432 0.292771 0.299951
          0.2952 0.292681 0.28089 0.231351 0.261776 0.290559 0.298756 0.300829 0.270799 0.266922 0.287676 0.281897
          0.292121 0.298721 0.300731 0.301213 0.28693 0.291934 0.297338 0.297715 0.299205 0.300676 0.301189 0.30131
          0.299068 0.299539 0.300449 0.300295 0.299058 0.300721 0.301226 0.301322 0.301038 0.30107 0.301178 0.301092
          0.300764 0.301148 0.301301 0.301334 0.301301 0.301303 0.301313 0.301289 0.301227 0.301297 0.301331 0.301339
          0.301024 0.300492 0.298243 0.291526 0.294669 0.294397 0.299423 0.300857 0.300202 0.298328 0.291669 0.265647
          0.274918 0.269435 0.295399 0.300314 0.295723 0.287876 0.276852 0.229737 0.27715 0.292433 0.299284 0.300869
          0.276743 0.244886 0.256905 0.277958 0.293178 0.298853 0.300711 0.301132 0.291946 0.272097 0.289289 0.295157
          0.29616 0.299774 0.300947 0.301185 0.299181 0.296132 0.298584 0.297323 0.285363 0.29806 0.30075 0.301166
          0.300902 0.30054 0.30075 0.300243 0.298117 0.300354 0.301072 0.301209 0.301186 0.301143 0.301151 0.301037
          0.300714 0.301053 0.301196 0.301228 0.300979 0.30058 0.299199 0.296149 0.296378 0.293867 0.299392 0.300801
          0.300402 0.298542 0.292566 0.279175 0.283311 0.263336 0.294783 0.300246 0.29781 0.289345 0.266849 0.2293
          0.26136 0.289538 0.298888 0.300753 0.290154 0.258476 0.236283 0.268415 0.288143 0.297509 0.300404 0.301
          0.290347 0.251737 0.278019 0.290087 0.284683 0.296868 0.300389 0.301015 0.298613 0.292023 0.29593 0.289543
          0.247749 0.290576 0.299728 0.300953 0.300718 0.299966 0.300177 0.29844 0.290762 0.298609 0.300709 0.301067
          0.301068 0.300983 0.300967 0.300641 0.299652 0.300665 0.301037 0.301113 0.300896 0.300518 0.299201 0.295991
          0.293534 0.297318 0.300141 0.300851 0.300454 0.298739 0.293136 0.277498 0.261434 0.28455 0.298181 0.300578
          0.298538 0.290787 0.272542 0.227142 0.252059 0.290116 0.299106 0.300697 0.292841 0.260764 0.273351 0.244224
          0.27903 0.295582 0.300028 0.300854 0.294911 0.272305 0.289507 0.282648 0.251004 0.29077 0.299563 0.300825
          0.299534 0.295947 0.2975 0.289843 0.252755 0.290754 0.299536 0.300825 0.300768 0.300313 0.300269 0.298403
          0.291519 0.29854 0.300587 0.300956 0.300984 0.300926 0.300883 0.300538 0.299606 0.300556 0.300927 0.301007
          0.300757 0.300237 0.298492 0.296405 0.298156 0.299768 0.30058 0.300835 0.300468 0.298972 0.293144 0.27779
          0.289546 0.296875 0.299776 0.300657 0.29944 0.294374 0.276108 0.230309 0.272397 0.294121 0.298341 0.300357
          0.297452 0.283011 0.241655 0.247117 0.266555 0.293834 0.299513 0.300643 0.299094 0.293944 0.28706 0.282033
          0.248739 0.289734 0.299279 0.300686 0.300435 0.299373 0.297832 0.290299 0.25307 0.290582 0.299466 0.300726
          0.300827 0.300655 0.300316 0.29857 0.292113 0.298628 0.30052 0.300857 0.300903 0.300876 0.300809 0.300501
          0.299679 0.30051 0.300834 0.300903 0.300343 0.298639 0.292234 0.295647 0.298878 0.300022 0.300429 0.300701
          0.300034 0.297714 0.286315 0.279814 0.293115 0.297403 0.298589 0.300281 0.29898 0.293919 0.267413 0.228527
          0.275891 0.289144 0.287689 0.298787 0.299381 0.294458 0.273592 0.234116 0.277892 0.294459 0.298182 0.300228
          0.300249 0.29865 0.293406 0.278841 0.252546 0.291404 0.29935 0.300577 0.30067 0.300314 0.299204 0.295582
          0.287285 0.297285 0.300191 0.300714 0.300786 0.300723 0.300519 0.299808 0.298264 0.300004 0.300651 0.300785
          0.300808 0.300798 0.300762 0.300638 0.3004 0.300659 0.300778 0.300807 0.299244 0.292843 0.259927 0.29056
          0.297685 0.299256 0.30025 0.300595 0.298411 0.295426 0.281868 0.277463 0.28785 0.291898 0.298205 0.300188
          0.293585 0.289849 0.251536 0.225861 0.246163 0.255053 0.289113 0.298922 0.298618 0.296262 0.281448 0.237035
          0.278235 0.290481 0.29798 0.300156 0.300258 0.299544 0.296011 0.285311 0.286499 0.297064 0.299935 0.300557
          0.300628 0.300479 0.299842 0.298092 0.297362 0.29968 0.300491 0.300667 0.300696 0.300671 0.300573 0.300311
          0.300093 0.300489 0.300659 0.300699 0.300706 0.300702 0.300687 0.300647 0.300605 0.300667 0.300698 0.300706
          0.298352 0.292599 0.266171 0.291541 0.29828 0.299844 0.300393 0.300553 0.293063 0.289268 0.254943 0.277662
          0.292872 0.297354 0.299702 0.300403 0.263906 0.283711 0.269933 0.229218 0.276083 0.289132 0.297688 0.300043
          0.293921 0.295617 0.290263 0.2763 0.29005 0.296478 0.299538 0.300378 0.299669 0.299604 0.298277 0.295237
          0.297034 0.29939 0.300309 0.300541 0.300487 0.300446 0.300209 0.299706 0.299808 0.300319 0.300535 0.300589
          0.30059 0.300582 0.300547 0.300475 0.300464 0.300549 0.30059 0.300601 0.300602 0.300601 0.300596 0.300585
          0.300581 0.300594 0.300601 0.300603 0.297965 0.289962 0.286429 0.294234 0.298273 0.299754 0.300328 0.300465
          0.294762 0.281526 0.251571 0.276412 0.290577 0.29665 0.299711 0.30036 0.285064 0.24607 0.22782 0.227153
          0.260819 0.281363 0.297597 0.30009 0.296534 0.288803 0.280879 0.277545 0.275914 0.2929 0.299232 0.300301
          0.299814 0.298784 0.297375 0.296204 0.296347 0.299092 0.30021 0.300447 0.300405 0.300287 0.300098 0.299891
          0.299925 0.300283 0.300449 0.300489 0.300488 0.300476 0.300453 0.300425 0.300427 0.30047 0.300492 0.300498
          0.300498 0.300497 0.300494 0.30049 0.30049 0.300495 0.300498 0.300499 0.297585 0.288163 0.287975 0.293778
          0.297871 0.299747 0.30027 0.300373 0.293057 0.261871 0.247028 0.272508 0.28837 0.297493 0.299883 0.300313
          0.295437 0.282497 0.255045 0.221581 0.252332 0.290133 0.298852 0.300179 0.298936 0.295672 0.288104 0.274895
          0.283118 0.296321 0.299688 0.300284 0.300108 0.29953 0.29813 0.295756 0.297262 0.2995 0.300217 0.300364
          0.300352 0.300272 0.300077 0.299774 0.299949 0.300249 0.300363 0.300389 0.30039 0.30038 0.300358 0.300325
          0.300341 0.300375 0.30039 0.300394 0.300395 0.300393 0.300391 0.300387 0.300389 0.300393 0.300395 0.300395
          0.29944 0.297403 0.29592 0.294698 0.298269 0.299814 0.300206 0.300278 0.298304 0.292037 0.283769 0.275547
          0.292097 0.298457 0.299983 0.300244 0.298388 0.290882 0.258398 0.224385 0.275816 0.295201 0.299497 0.300177
          0.299664 0.297554 0.289708 0.277045 0.28999 0.297536 0.299779 0.300209 0.300157 0.299748 0.298341 0.295968
          0.297709 0.299503 0.300129 0.300263 0.30027 0.300208 0.300009 0.299681 0.299839 0.300137 0.300257 0.300285
          0.300288 0.300281 0.300257 0.300218 0.300229 0.300268 0.300286 0.30029 0.300291 0.30029 0.300287 0.300283
          0.300283 0.300288 0.300291 0.300291 0.299931 0.299183 0.296879 0.291011 0.297309 0.299564 0.300083 0.300172
          0.299507 0.296925 0.286847 0.255916 0.288442 0.297801 0.299805 0.300131 0.299 0.29284 0.262899 0.219374
          0.271645 0.293846 0.299152 0.300036 0.29975 0.297824 0.289602 0.272174 0.274172 0.292885 0.298848 0.299982
          0.300087 0.299678 0.297992 0.29413 0.292939 0.297868 0.299717 0.300108 0.30017 0.300104 0.299838 0.299219
          0.29887 0.299721 0.300086 0.300169 0.300185 0.300176 0.300142 0.300062 0.300007 0.300118 0.300171 0.300185
          0.300187 0.300186 0.300182 0.300172 0.300165 0.300178 0.300185 0.300187 0.299966 0.29952 0.297775 0.293915
          0.297455 0.299411 0.29996 0.300064 0.299709 0.298046 0.290888 0.272637 0.288543 0.297155 0.299557 0.300002
          0.299244 0.294795 0.273245 0.219263 0.259584 0.28957 0.298227 0.299807 0.299724 0.297977 0.28978 0.265401
          0.220018 0.276169 0.296075 0.299533 0.299991 0.299558 0.297477 0.290673 0.276283 0.293157 0.298778 0.29988
          0.300067 0.299989 0.299615 0.298387 0.296114 0.298784 0.299818 0.300039 0.300082 0.300071 0.300018 0.299853
          0.29959 0.299902 0.300044 0.300077 0.300084 0.300083 0.300076 0.300056 0.300027 0.300061 0.300079 0.300083
        </DataArray>
        <DataArray type="Float32" Name="process rank" NumberOfComponents="1" format="ascii">
          0 0 0 0 0 0 0 0 0 0 0 0
          0 0 0 0 0 0 0 0 0 0 0 0
          0 0 0 0 0 0 0 0 0 0 0 0
          0 0 0 0 0 0 0 0 0 0 0 0
          0 0 0 0 0 0 0 0 0 0 0 0
          0 0 0 0 0 0 0 0 0 0 0 0
          0 0 0 0 0 0 0 0 0 0 0 0
          0 0 0 0 0 0 0 0 0 0 0 0
          0 0 0 0 0 0 0 0 0 0 0 0
          0 0 0 0 0 0 0 0 0 0 0 0
          0 0 0 0 0 0 0 0 0 0 0 0
          0 0 0 0 0 0 0 0 0 0 0 0
          0 0 0 0 0 0 0 0 0 0 0 0
          0 0 0 0 0 0 0 0 0 0 0 0
          0 0 0 0 0 0 0 0 0 0 0 0
          0 0 0 0 0 0 0 0 0 0 0 0
          0 0 0 0 0 0 0 0 0 0 0 0
          0 0 0 0 0 0 0 0 0 0 0 0
          0 0 0 0 0 0 0 0 0 0 0 0
          0 0 0 0 0 0 0 0 0 0 0 0
          0 0 0 0 0 0 0 0 0 0 0 0
          0 0 0 0 0 0 0 0 0 0 0 0
          0 0 0 0 0 0 0 0 0 0 0 0
          0 0 0 0 0 0 0 0 0 0 0 0
          0 0 0 0 0 0 0 0 0 0 0 0
          0 0 0 0 0 0 0 0 0 0 0 0
          0 0 0 0 0 0 0 0 0 0 0 0
          0 0 0 0 0 0 0 0 0 0 0 0
          0 0 0 0 0 0 0 0 0 0 0 0
          0 0 0 0 0 0 0 0 0 0 0 0
          0 0 0 0 0 0 0 0 0 0 0 0
          0 0 0 0 0 0 0 0 0 0 0 0
          0 0 0 0 0 0 0 0 0 0 0 0
          0 0 0 0 0 0 0 0 0 0 0 0
          0 0 0 0 0 0 0 0 0 0 0 0
          0 0 0 0 0 0 0 0 0 0 0 0
          0 0 0 0 0 0 0 0 0 0 0 0
          0 0 0 0 0 0 0 0 0 0 0 0
          0 0 0 0 0 0 0 0 0 0 0 0
          0 0 0 0 0 0 0 0 0 0 0 0
          0 0 0 0 0 0 0 0 0 0 0 0
          0 0 0 0 0 0 0 0 0 0 0 0
          0 0 0 0 0 0 0 0 0 0 0 0
          0 0 0 0 0 0 0 0 0 0 0 0
          0 0 0 0 0 0 0 0 0 0 0 0
          0 0 0 0 0 0 0 0 0 0 0 0
          0 0 0 0 0 0 0 0 0 0 0 0
          0 0 0 0 0 0 0 0 0 0 0 0
          0 0 0 0 0 0 0 0 0 0 0 0
          0 0 0 0 0 0 0 0 0 0 0 0
          0 0 0 0 0 0 0 0 0 0 0 0
          0 0 0 0 0 0 0 0 0 0 0 0
          0 0 0 0 0 0 0 0 0 0 0 0
          0 0 0 0 0 0 0 0 0 0 0 0
          0 0 0 0 0 0 0 0 0 0 0 0
          0 0 0 0 0 0 0 0 0 0 0 0
          0 0 0 0 0 0 0 0 0 0 0 0
          0 0 0 0 0 0 0 0 0 0 0 0
          0 0 0 0 0 0 0 0 0 0 0 0
          0 0 0 0 0 0 0 0 0 0 0 0
          0 0 0 0 0 0 0 0 0 0 0 0
          0 0 0 0 0 0 0 0 0 0 0 0
          0 0 0 0 0 0 0 0 0 0 0 0
          0 0 0 0 0 0 0 0 0 0 0 0
          0 0 0 0 0 0 0 0 0 0 0 0
          0 0 0 0 0 0 0 0 0 0 0 0
          0 0 0 0 0 0 0 0 0 0 0 0
          0 0 0 0 0 0 0 0 0 0 0 0
          0 0 0 0 0 0 0 0 0 0 0 0
          0 0 0 0 0 0 0 0 0 0 0 0
          0 0 0 0 0 0 0 0 0 0 0 0
          0 0 0 0 0 0 0 0 0 0 0 0
          0 0 0 0 0 0 0 0 0 0 0 0
          0 0 0 0 0 0 0 0 0 0 0 0
          0 0 0 0 0 0 0 0 0 0 0 0
          0 0 0 0 0 0 0 0 0 0 0 0
          0 0 0 0 0 0 0 0 0 0 0 0
          0 0 0 0 0 0 0 0 0 0 0 0
          0 0 0 0 0 0 0 0 0 0 0 0
          0 0 0 0 0 0 0 0 0 0 0 0
        </DataArray>
      </CellData>
      <Points>
        <DataArray type="Float32" Name="Coordinates" NumberOfComponents="3" format="ascii">
          -0.04 -0.04 -0.15 -0.03 -0.04 -0.15 -0.04 -0.03 -0.15 -0.03 -0.03 -0.15
          -0.04 -0.04 -0.14 -0.03 -0.04 -0.14 -0.04 -0.03 -0.14 -0.03 -0.03 -0.14
          -0.02 -0.04 -0.15 -0.02 -0.03 -0.15 -0.02 -0.04 -0.14 -0.02 -0.03 -0.14
          -0.01 -0.04 -0.15 -0.01 -0.03 -0.15 -0.01 -0.04 -0.14 -0.01 -0.03 -0.14
          0 -0.04 -0.15 0 -0.03 -0.15 0 -0.04 -0.14 0 -0.03 -0.14
          0.01 -0.04 -0.15 0.01 -0.03 -0.15 0.01 -0.04 -0.14 0.01 -0.03 -0.14
          0.02 -0.04 -0.15 0.02 -0.03 -0.15 0.02 -0.04 -0.14 0.02 -0.03 -0.14
          0.03 -0.04 -0.15 0.03 -0.03 -0.15 0.03 -0.04 -0.14 0.03 -0.03 -0.14
          0.04 -0.04 -0.15 0.04 -0.03 -0.15 0.04 -0.04 -0.14 0.04 -0.03 -0.14
          -0.04 -0.02 -0.15 -0.03 -0.02 -0.15 -0.04 -0.02 -0.14 -0.03 -0.02 -0.14
          -0.02 -0.02 -0.15 -0.02 -0.02 -0.14 -0.01 -0.02 -0.15 -0.01 -0.02 -0.14
          0 -0.02 -0.15 0 -0.02 -0.14 0.01 -0.02 -0.15 0.01 -0.02 -0.14
          0.02 -0.02 -0.15 0.02 -0.02 -0.14 0.03 -0.02 -0.15 0.03 -0.02 -0.14
          0.04 -0.02 -0.15 0.04 -0.02 -0.14 -0.04 -0.01 -0.15 -0.03 -0.01 -0.15
          -0.04 -0.01 -0.14 -0.03 -0.01 -0.14 -0.02 -0.01 -0.15 -0.02 -0.01 -0.14
          -0.01 -0.01 -0.15 -0.01 -0.01 -0.14 0 -0.01 -0.15 0 -0.01 -0.14
          0.01 -0.01 -0.15 0.01 -0.01 -0.14 0.02 -0.01 -0.15 0.02 -0.01 -0.14
          0.03 -0.01 -0.15 0.03 -0.01 -0.14 0.04 -0.01 -0.15 0.04 -0.01 -0.14
          -0.04 0 -0.15 -0.03 0 -0.15 -0.04 0 -0.14 -0.03 0 -0.14
          -0.02 0 -0.15 -0.02 0 -0.14 -0.01 0 -0.15 -0.01 0 -0.14
          0 0 -0.15 0 0 -0.14 0.01 0 -0.15 0.01 0 -0.14
          0.02 0 -0.15 0.02 0 -0.14 0.03 0 -0.15 0.03 0 -0.14
          0.04 0 -0.15 0.04 0 -0.14 -0.04 0.01 -0.15 -0.03 0.01 -0.15
          -0.04 0.01 -0.14 -0.03 0.01 -0.14 -0.02 0.01 -0.15 -0.02 0.01 -0.14
          -0.01 0.01 -0.15 -0.01 0.01 -0.14 0 0.01 -0.15 0 0.01 -0.14
          0.01 0.01 -0.15 0.01 0.01 -0.14 0.02 0.01 -0.15 0.02 0.01 -0.14
          0.03 0.01 -0.15 0.03 0.01 -0.14 0.04 0.01 -0.15 0.04 0.01 -0.14
          -0.04 0.02 -0.15 -0.03 0.02 -0.15 -0.04 0.02 -0.14 -0.03 0.02 -0.14
          -0.02 0.02 -0.15 -0.02 0.02 -0.14 -0.01 0.02 -0.15 -0.01 0.02 -0.14
          0 0.02 -0.15 0 0.02 -0.14 0.01 0.02 -0.15 0.01 0.02 -0.14
          0.02 0.02 -0.15 0.02 0.02 -0.14 0.03 0.02 -0.15 0.03 0.02 -0.14
          0.04 0.02 -0.15 0.04 0.02 -0.14 -0.04 0.03 -0.15 -0.03 0.03 -0.15
          -0.04 0.03 -0.14 -0.03 0.03 -0.14 -0.02 0.03 -0.15 -0.02 0.03 -0.14
          -0.01 0.03 -0.15 -0.01 0.03 -0.14 0 0.03 -0.15 0 0.03 -0.14
          0.01 0.03 -0.15 0.01 0.03 -0.14 0.02 0.03 -0.15 0.02 0.03 -0.14
          0.03 0.03 -0.15 0.03 0.03 -0.14 0.04 0.03 -0.15 0.04 0.03 -0.14
          -0.04 0.04 -0.15 -0.03 0.04 -0.15 -0.04 0.04 -0.14 -0.03 0.04 -0.14
          -0.02 0.04 -0.15 -0.02 0.04 -0.14 -0.01 0.04 -0.15 -0.01 0.04 -0.14
          0 0.04 -0.15 0 0.04 -0.14 0.01 0.04 -0.15 0.01 0.04 -0.14
          0.02 0.04 -0.15 0.02 0.04 -0.14 0.03 0.04 -0.15 0.03 0.04 -0.14
          0.04 0.04 -0.15 0.04 0.04 -0.14 -0.04 -0.04 -0.13 -0.03 -0.04 -0.13
          -0.04 -0.03 -0.13 -0.03 -0.03 -0.13 -0.02 -0.04 -0.13 -0.02 -0.03 -0.13
          -0.01 -0.04 -0.13 -0.01 -0.03 -0.13 0 -0.04 -0.13 0 -0.03 -0.13
          0.01 -0.04 -0.13 0.01 -0.03 -0.13 0.02 -0.04 -0.13 0.02 -0.03 -0.13
          0.03 -0.04 -0.13 0.03 -0.03 -0.13 0.04 -0.04 -0.13 0.04 -0.03 -0.13
          -0.04 -0.02 -0.13 -0.03 -0.02 -0.13 -0.02 -0.02 -0.13 -0.01 -0.02 -0.13
          0 -0.02 -0.13 0.01 -0.02 -0.13 0.02 -0.02 -0.13 0.03 -0.02 -0.13
          0.04 -0.02 -0.13 -0.04 -0.01 -0.13 -0.03 -0.01 -0.13 -0.02 -0.01 -0.13
          -0.01 -0.01 -0.13 0 -0.01 -0.13 0.01 -0.01 -0.13 0.02 -0.01 -0.13
          0.03 -0.01 -0.13 0.04 -0.01 -0.13 -0.04 0 -0.13 -0.03 0 -0.13
          -0.02 0 -0.13 -0.01 0 -0.13 0 0 -0.13 0.01 0 -0.13
          0.02 0 -0.13 0.03 0 -0.13 0.04 0 -0.13 -0.04 0.01 -0.13
          -0.03 0.01 -0.13 -0.02 0.01 -0.13 -0.01 0.01 -0.13 0 0.01 -0.13
          0.01 0.01 -0.13 0.02 0.01 -0.13 0.03 0.01 -0.13 0.04 0.01 -0.13
          -0.04 0.02 -0.13 -0.03 0.02 -0.13 -0.02 0.02 -0.13 -0.01 0.02 -0.13
          0 0.02 -0.13 0.01 0.02 -0.13 0.02 0.02 -0.13 0.03 0.02 -0.13
          0.04 0.02 -0.13 -0.04 0.03 -0.13 -0.03 0.03 -0.13 -0.02 0.03 -0.13
          -0.01 0.03 -0.13 0 0.03 -0.13 0.01 0.03 -0.13 0.02 0.03 -0.13
          0.03 0.03 -0.13 0.04 0.03 -0.13 -0.04 0.04 -0.13 -0.03 0.04 -0.13
          -0.02 0.04 -0.13 -0.01 0.04 -0.13 0 0.04 -0.13 0.01 0.04 -0.13
          0.02 0.04 -0.13 0.03 0.04 -0.13 0.04 0.04 -0.13 -0.04 -0.04 -0.12
          -0.03 -0.04 -0.12 -0.04 -0.03 -0.12 -0.03 -0.03 -0.12 -0.02 -0.04 -0.12
          -0.02 -0.03 -0.12 -0.01 -0.04 -0.12 -0.01 -0.03 -0.12 0 -0.04 -0.12
          0 -0.03 -0.12 0.01 -0.04 -0.12 0.01 -0.03 -0.12 0.02 -0.04 -0.12
          0.02 -0.03 -0.12 0.03 -0.04 -0.12 0.03 -0.03 -0.12 0.04 -0.04 -0.12
          0.04 -0.03 -0.12 -0.04 -0.02 -0.12 -0.03 -0.02 -0.12 -0.02 -0.02 -0.12
          -0.01 -0.02 -0.12 0 -0.02 -0.12 0.01 -0.02 -0.12 0.02 -0.02 -0.12
          0.03 -0.02 -0.12 0.04 -0.02 -0.12 -0.04 -0.01 -0.12 -0.03 -0.01 -0.12
          -0.02 -0.01 -0.12 -0.01 -0.01 -0.12 0 -0.01 -0.12 0.01 -0.01 -0.12
          0.02 -0.01 -0.12 0.03 -0.01 -0.12 0.04 -0.01 -0.12 -0.04 0 -0.12
          -0.03 0 -0.12 -0.02 0 -0.12 -0.01 0 -0.12 0 0 -0.12
          0.01 0 -0.12 0.02 0 -0.12 0.03 0 -0.12 0.04 0 -0.12
          -0.04 0.01 -0.12 -0.03 0.01 -0.12 -0.02 0.01 -0.12 -0.01 0.01 -0.12
          0 0.01 -0.12 0.01 0.01 -0.12 0.02 0.01 -0.12 0.03 0.01 -0.12
          0.04 0.01 -0.12 -0.04 0.02 -0.12 -0.03 0.02 -0.12 -0.02 0.02 -0.12
          -0.01 0.02 -0.12 0 0.02 -0.12 0.01 0.02 -0.12 0.02 0.02 -0.12
          0.03 0.02 -0.12 0.04 0.02 -0.12 -0.04 0.03 -0.12 -0.03 0.03 -0.12
          -0.02 0.03 -0.12 -0.01 0.03 -0.12 0 0.03 -0.12 0.01 0.03 -0.12
          0.02 0.03 -0.12 0.03 0.03 -0.12 0.04 0.03 -0.12 -0.04 0.04 -0.12
          -0.03 0.04 -0.12 -0.02 0.04 -0.12 -0.01 0.04 -0.12 0 0.04 -0.12
          0.01 0.04 -0.12 0.02 0.04 -0.12 0.03 0.04 -0.12 0.04 0.04 -0.12
          -0.04 -0.04 -0.11 -0.03 -0.04 -0.11 -0.04 -0.03 -0.11 -0.03 -0.03 -0.11
          -0.02 -0.04 -0.11 -0.02 -0.03 -0.11 -0.01 -0.04 -0.11 -0.01 -0.03 -0.11
          0 -0.04 -0.11 0 -0.03 -0.11 0.01 -0.04 -0.11 0.01 -0.03 -0.11
          0.02 -0.04 -0.11 0.02 -0.03 -0.11 0.03 -0.04 -0.11 0.03 -0.03 -0.11
          0.04 -0.04 -0.11 0.04 -0.03 -0.11 -0.04 -0.02 -0.11 -0.03 -0.02 -0.11
          -0.02 -0.02 -0.11 -0.01 -0.02 -0.11 0 -0.02 -0.11 0.01 -0.02 -0.11
          0.02 -0.02 -0.11 0.03 -0.02 -0.11 0.04 -0.02 -0.11 -0.04 -0.01 -0.11
          -0.03 -0.01 -0.11 -0.02 -0.01 -0.11 -0.01 -0.01 -0.11 0 -0.01 -0.11
          0.01 -0.01 -0.11 0.02 -0.01 -0.11 0.03 -0.01 -0.11 0.04 -0.01 -0.11
          -0.04 0 -0.11 -0.03 0 -0.11 -0.02 0 -0.11 -0.01 0 -0.11
          0 0 -0.11 0.01 0 -0.11 0.02 0 -0.11 0.03 0 -0.11
          0.04 0 -0.11 -0.04 0.01 -0.11 -0.03 0.01 -0.11 -0.02 0.01 -0.11
          -0.01 0.01 -0.11 0 0.01 -0.11 0.01 0.01 -0.11 0.02 0.01 -0.11
          0.03 0.01 -0.11 0.04 0.01 -0.11 -0.04 0.02 -0.11 -0.03 0.02 -0.11
          -0.02 0.02 -0.11 -0.01 0.02 -0.11 0 0.02 -0.11 0.01 0.02 -0.11
          0.02 0.02 -0.11 0.03 0.02 -0.11 0.04 0.02 -0.11 -0.04 0.03 -0.11
          -0.03 0.03 -0.11 -0.02 0.03 -0.11 -0.01 0.03 -0.11 0 0.03 -0.11
          0.01 0.03 -0.11 0.02 0.03 -0.11 0.03 0.03 -0.11 0.04 0.03 -0.11
          -0.04 0.04 -0.11 -0.03 0.04 -0.11 -0.02 0.04 -0.11 -0.01 0.04 -0.11
          0 0.04 -0.11 0.01 0.04 -0.11 0.02 0.04 -0.11 0.03 0.04 -0.11
          0.04 0.04 -0.11 -0.04 -0.04 -0.1 -0.03 -0.04 -0.1 -0.04 -0.03 -0.1
          -0.03 -0.03 -0.1 -0.02 -0.04 -0.1 -0.02 -0.03 -0.1 -0.01 -0.04 -0.1
          -0.01 -0.03 -0.1 0 -0.04 -0.1 0 -0.03 -0.1 0.01 -0.04 -0.1
          0.01 -0.03 -0.1 0.02 -0.04 -0.1 0.02 -0.03 -0.1 0.03 -0.04 -0.1
          0.03 -0.03 -0.1 0.04 -0.04 -0.1 0.04 -0.03 -0.1 -0.04 -0.02 -0.1
          -0.03 -0.02 -0.1 -0.02 -0.02 -0.1 -0.01 -0.02 -0.1 0 -0.02 -0.1
          0.01 -0.02 -0.1 0.02 -0.02 -0.1 0.03 -0.02 -0.1 0.04 -0.02 -0.1
          -0.04 -0.01 -0.1 -0.03 -0.01 -0.1 -0.02 -0.01 -0.1 -0.01 -0.01 -0.1
          0 -0.01 -0.1 0.01 -0.01 -0.1 0.02 -0.01 -0.1 0.03 -0.01 -0.1
          0.04 -0.01 -0.1 -0.04 0 -0.1 -0.03 0 -0.1 -0.02 0 -0.1
          -0.01 0 -0.1 0 0 -0.1 0.01 0 -0.1 0.02 0 -0.1
          0.03 0 -0.1 0.04 0 -0.1 -0.04 0.01 -0.1 -0.03 0.01 -0.1
          -0.02 0.01 -0.1 -0.01 0.01 -0.1 0 0.01 -0.1 0.01 0.01 -0.1
          0.02 0.01 -0.1 0.03 0.01 -0.1 0.04 0.01 -0.1 -0.04 0.02 -0.1
          -0.03 0.02 -0.1 -0.02 0.02 -0.1 -0.01 0.02 -0.1 0 0.02 -0.1
          0.01 0.02 -0.1 0.02 0.02 -0.1 0.03 0.02 -0.1 0.04 0.02 -0.1
          -0.04 0.03 -0.1 -0.03 0.03 -0.1 -0.02 0.03 -0.1 -0.01 0.03 -0.1
          0 0.03 -0.1 0.01 0.03 -0.1 0.02 0.03 -0.1 0.03 0.03 -0.1
          0.04 0.03 -0.1 -0.04 0.04 -0.1 -0.03 0.04 -0.1 -0.02 0.04 -0.1