<?xml version="1.0"?>
<VTKFile type="UnstructuredGrid" version="0.1" byte_order="LittleEndian">
  <UnstructuredGrid>
    <Piece NumberOfCells="960" NumberOfPoints="1296">
      <CellData Scalars="p (Pa)">
        <DataArray type="Float32" Name="p (Pa)" NumberOfComponents="1" format="ascii">
          36654.7 36649.2 36640.4 36631.9 36627.1 36627.1 36630.2 36633.1 36658.3 36653.3 36645.3 36637.6
          36633.2 36633.2 36636 36638.6 36664.5 36660.4 36653.8 36647.5 36643.8 36643.8 36646.1 36648.1
          36671.9 36668.8 36663.9 36659.1 36656.4 36656.3 36657.9 36659.4 36679 36676.9 36673.5 36670.2
          36668.3 36668.2 36669.3 36670.3 36684.8 36683.4 36681.2 36679.1 36677.9 36677.8 36678.5 36679.1
          36688.7 36687.9 36686.5 36685.1 36684.4 36684.3 36684.7 36685.1 36690.7 36690.1 36689.1 36688.1
          36687.6 36687.5 36687.8 36688 36523.6 36513 36495.9 36479.4 36470.1 36470.8 36477.7 36483.6
          36530 36520.5 36505.1 36490.1 36481.7 36482.3 36488.4 36493.7 36541.3 36533.4 36520.8 36508.6
          36501.8 36502.1 36506.9 36511.2 36554.6 36548.8 36539.4 36530.4 36525.3 36525.4 36528.8 36531.9
          36567.5 36563.5 36557.1 36550.9 36547.4 36547.4 36549.6 36551.6 36577.9 36575.3 36571.2 36567.3
          36565 36565 36566.3 36567.5 36584.9 36583.3 36580.7 36578.3 36576.8 36576.8 36577.5 36578.3
          36588.4 36587.3 36585.4 36583.7 36582.7 36582.6 36583.1 36583.6 36342.7 36318.4 36278.9 36240
          36218.7 36222.1 36240.3 36255.6 36356.5 36334.6 36299.1 36264.2 36245 36247.9 36263.9 36277.4
          36380.4 36362.7 36333.9 36305.7 36290.2 36292.1 36304.6 36315.3 36408.8 36395.7 36374.5 36354
          36342.5 36343.6 36352.2 36359.8 36435.9 36427 36412.7 36398.9 36391.2 36391.6 36397.1 36402
          36457.7 36452.1 36443.1 36434.5 36429.6 36429.6 36432.9 36435.8 36472.5 36469 36463.5 36458.1
          36455 36454.9 36456.8 36458.5 36479.9 36477.4 36473.5 36469.7 36467.5 36467.4 36468.6 36469.8
          36076.8 36021.5 35930.1 35838.4 35788.4 35801.6 35850.2 35889.4 36105.6 36056 35974.3 35892.6
          35848.1 35859.2 35901.6 35936.1 36155.6 36115.7 36050.3 35985.5 35950.2 35957.7 35990.1 36016.7
          36214.5 36185.5 36138.2 36091.8 36066.4 36070.6 36092.5 36110.8 36270.5 36251.1 36219.8 36189.2
          36172.4 36174.3 36187.7 36199.3 36315.5 36303.4 36283.9 36265.1 36254.5 36255.2 36262.9 36269.6
          36345.9 36338.4 36326.4 36314.9 36308.4 36308.5 36312.8 36316.7 36360.9 36355.6 36347.3 36339.2
          36334.6 36334.5 36337.3 36339.9 35670.4 35549.4 35344.2 35130.6 35012.7 35059.2 35187.8 35286.1
          35727.3 35619.4 35437.4 35249 35145.3 35184.3 35295.5 35381.2 35825.8 35740.1 35597 35451.4
          35371.9 35397.8 35480 35544.6 35941.2 35879.9 35778.7 35677.5 35622.5 35636.9 35690.2 35733.4
          36050.2 36010 35944.3 35879.6 35844.3 35851.1 35882.6 35908.8 36137.3 36112.6 36072.5 36033.4
          36011.9 36014.6 36032 36046.9 36195.9 36180.8 36156.6 36133.2 36120 36120.9 36130.4 36138.7
          36224.9 36214.4 36197.6 36181.3 36172.1 36172.3 36178.3 36183.8 35051.5 34798 34351.2 33855.1
          33563.9 33723.8 34062.8 34303.5 35156.8 34932.4 34539.6 34107.6 33855.6 33989.1 34279.1 34486.8
          35338.6 35163.5 34862.3 34541.1 34360.4 34444 34648.8 34800.7 35550.4 35427.8 35221 35007.6
          34890.8 34934.6 35060.8 35158.2 35748.7 35669.9 35539.3 35408.2 35337 35357.2 35428.1 35485
          35906.1 35858.5 35780.6 35703.9 35662.1 35670.3 35707.8 35739 36011.5 35982.9 35936.6 35891.6
          35866.7 35869.6 35889.4 35906.4 36063.5 36043.7 36012 35981.3 35964.1 35965.1 35977.4 35988.2
          34148.4 33641.8 32695.7 31527.8 30728.9 31297 32193.1 32767 34329.4 33884 33059.9 32055.6
          31373.8 31849.5 32609 33099.7 34642.9 34302.9 33692.3 32990 32557.8 32823.9 33326.6 33670.6
          35005 34773.1 34370.3 33933.6 33684.4 33810.3 34098.8 34308.7 35340.7 35195.4 34949.8 34695.4
          34555.9 34610.1 34762.5 34879.6 35605.2 35519.1 35376.5 35233.5 35155.9 35177.5 35254.3 35316.1
          35781.5 35730.5 35647.5 35565.9 35521.3 35529.2 35568.1 35600.8 35868.3 35833.4 35777.1 35722.5
          35692.2 35695.3 35718.8 35739.2 32928.5 31972.6 30033.2 27210.7 24602.4 26816.3 29203.2 30520.4
          33213.8 32377.3 30697.9 28283.7 26042.9 27937.9 29959.9 31082 33713.4 33091.3 31904.5 30373.4
          29238.8 30102.6 31315.3 32059.6 34286.7 33875.4 33130.9 32262.5 31718.7 32066.3 32699.5 33127.2
          34813.2 34562.1 34126.5 33655 33386.4 33521.1 33831.8 34058.4 35225.1 35079.3 34834.1 34581.6
          34443.4 34494.1 34642.4 34757.3 35498.7 35413.7 35273.8 35134.4 35058.6 35077.1 35149.2 35208
          35633.3 35575.7 35482.1 35390.5 35340.2 35347.9 35390.3 35426.2 31470.6 29815 26054.6 19065.6
          8201.05 18398.9 24760.5 27582.5 31870.3 30415.7 27141.5 21073.3 11238.9 20503.4 26001.9 28428.6
          32591.4 31537.8 29363.4 26069.3 22737.5 25645.4 28471.6 29972 33420.3 32743.7 31455.5 29799.6
          28582.1 29503.8 30813.7 31621.5 34178.9 33775.6 33052.8 32224.3 31717.2 32026.7 32618.9 33026.2
          34771.3 34541 34145.7 33725.2 33489.2 33597.1 33864.5 34063.6 35164.8 35032 34810.9 34586.5
          34464.2 34502.6 34627.9 34727 35358.7 35269.2 35123 34978.5 34899.8 34916 34987.7 35047
          30058.1 27597.1 21250.9 4633.58 -62795.8 3532.92 19397.6 24520.3 30522 28302.7 22566.5 7163.9
          -62488.6 6240.06 20934 25539.8 31423.6 29828.5 26243.2 19654.4 9264.33 19019.2 24986.4 27649.9
          32491.6 31478.8 29444.6 26530.3 23879.4 26108.3 28553.3 29921.3 33484.8 32887 31777.9 30422
          29505.9 30147.4 31180.4 31849 34268.5 33929.8 33335.1 32677.7 32293.7 32501.5 32948.7 33268.2
          34792.8 34598.8 34270.9 33930.7 33743.2 33815.3 34018.6 34174.7 35052.6 34922.4 34707.6 34492.7
          34375.9 34406.5 34520.3 34612.4 29149.5 26460.5 20087.3 7469.67 -13134 6145.95 17857.3 22860.3
          29539.8 26902.6 20141.7 2833.24 -62853.7 1578.97 18092.5 23555.9 30439.7 28378.6 23564.4 14109.5
          -1956.99 13238.8 21951.4 25647.6 31630 30267.1 27414 23004 18493.2 22440.6 26265.9 28277.2
          32802.8 31985.3 30416.6 28378.1 26868.4 28018.9 29647.2 30646.1 33757.3 33292.2 32455.1 31489.3
          30895.5 31261.1 31956.6 32433.2 34407.1 34140.9 33683.4 33195.9 32922 33046.5 33356.4 33587.1
          34732.1 34554 34256.8 33954.5 33789.9 33842.6 34012.8 34147.3 28842.3 26292.7 20584.4 10411.4
          -3623.29 9126.11 18319.5 22629.7 29064.4 26337.4 19436.3 2112.47 -62828.2 733.373 17213.4 22760.6
          29773.7 27326.7 21070.6 4826.28 -62661.4 3722.95 19190.9 24212.4 30937.9 29224.8 25384.2 18406
          7798.87 17699.8 24011.1 26867.9 32203.9 31153.6 29040.7 26013.3 23283.1 25570.6 28112 29536.7
          33285 32684 31567.3 30199.2 29273.8 29920.3 30962.5 31636 34039.4 33695.9 33093.3 32428.1
          32039.5 32245.6 32694.1 33015.3 34421.5 34192.4 33805.1 33403.3 33182.2 33266.2 33505.8 33690.2
          29007 26828.6 22285.9 15343.9 8597.69 14240.3 20215.4 23441.3 29067.2 26625.5 21002.8 10242
          -7177.04 9040.67 18889.6 23186.4 29500.1 26974.5 20487 3679.97 -62737.1 2493.15 18518.2 23746
          30497.2 28540.1 23934.8 14732.8 -1481.09 13918.7 22415.6 25955.5 31754.4 30505.1 27874.7 23750.8
          19399.5 23239 26825.3 28680.1 32900.2 32177.1 30788.1 28974.1 27608.2 28653 30097.9 30976.7
          33724.5 33310.9 32569.9 31719.9 31196.8 31509.7 32111 32524.4 34148 33872.8 33401.5 32902.4
          32622.8 32744.1 33055.7 33289.4 29333.8 27501.7 23854.7 18735.6 14389.6 17792.3 22010.1 24459.1
          29286.7 27162.3 22490.9 14275.2 2509.76 13233.8 20566 23996.3 29502.6 27087.5 20880.2 4571.75
          -62677.5 3420.75 18965.6 23948.7 30297.2 28206 22792.4 7969.98 -62386.4 7078.11 21220.4 25551.2
          31483.2 30109.6 27039.4 21353.4 11922.9 20797 25926.8 28179.1 32635.3 31834.1 30245.5 27996.6
          25919 27648.7 29504.2 30543.5 33488.5 33028.8 32191.9 31197 30536.3 30968.5 31694.5 32174.2
          33933 33626.4 33097.3 32528.2 32202.4 32355.4 32720 32988.3 29552 27954.7 24906.1 20979.5
          18171.3 20136.9 23212.5 25150.7 29473.6 27636.5 23876.3 18299.7 13061.9 17387.1 22105.3 24701.8
          29611.3 27535.4 22856.2 14300.8 1591.7 13333 21077.1 24581 30285.7 28423.8 24195.6 16315.1
          3941.49 15519.3 22683 25855 31376.7 30078.4 27370.2 23211.2 19016.2 22670 26261.9 28157.6
          32488.8 31696.9 30176.4 28198.5 26733.1 27846.5 29422.2 30386.5 33335.2 32867.2 32026.6 31059.7
          30466.7 30824.5 31514 31987.6 33782.2 33465 32919.9 32339.7 32014.8 32160.5 32528.4 32803
        </DataArray>
        <DataArray type="Float32" Name="saturation" NumberOfComponents="1" format="ascii">
          0.301509 0.301503 0.301494 0.301485 0.301479 0.301479 0.301483 0.301486 0.301513 0.301508 0.301499 0.301491
          0.301486 0.301486 0.301489 0.301492 0.30152 0.301516 0.301508 0.301502 0.301498 0.301498 0.3015 0.301502
          0.301528 0.301525 0.301519 0.301514 0.301511 0.301511 0.301513 0.301515 0.301536 0.301534 0.30153 0.301526
          0.301524 0.301524 0.301525 0.301526 0.301542 0.301541 0.301538 0.301536 0.301535 0.301535 0.301535 0.301536
          0.301546 0.301546 0.301544 0.301543 0.301542 0.301542 0.301542 0.301542 0.301549 0.301548 0.301547 0.301546
          0.301545 0.301545 0.301545 0.301546 0.301367 0.301356 0.301337 0.301319 0.301309 0.30131 0.301317 0.301324
          0.301374 0.301364 0.301347 0.301331 0.301322 0.301322 0.301329 0.301335 0.301386 0.301378 0.301364 0.301351
          0.301343 0.301344 0.301349 0.301354 0.301401 0.301394 0.301384 0.301374 0.301369 0.301369 0.301373 0.301376
          0.301415 0.30141 0.301403 0.301397 0.301393 0.301393 0.301395 0.301397 0.301426 0.301423 0.301419 0.301414
          0.301412 0.301412 0.301413 0.301415 0.301434 0.301432 0.301429 0.301426 0.301425 0.301425 0.301426 0.301426
          0.301437 0.301436 0.301434 0.301432 0.301431 0.301431 0.301432 0.301432 0.301171 0.301145 0.301103 0.301061
          0.301038 0.301041 0.301061 0.301077 0.301186 0.301163 0.301124 0.301087 0.301066 0.301069 0.301086 0.301101
          0.301212 0.301193 0.301162 0.301132 0.301115 0.301117 0.30113 0.301142 0.301243 0.301229 0.301206 0.301184
          0.301171 0.301172 0.301182 0.30119 0.301272 0.301262 0.301247 0.301232 0.301224 0.301224 0.30123 0.301235
          0.301296 0.30129 0.30128 0.301271 0.301265 0.301265 0.301269 0.301272 0.301312 0.301308 0.301302 0.301296
          0.301293 0.301293 0.301295 0.301297 0.30132 0.301317 0.301313 0.301309 0.301306 0.301306 0.301307 0.301309
          0.300885 0.300826 0.300728 0.300631 0.300577 0.300591 0.300643 0.300685 0.300916 0.300863 0.300776 0.300688
          0.300641 0.300653 0.300698 0.300735 0.30097 0.300927 0.300857 0.300788 0.30075 0.300758 0.300793 0.300821
          0.301033 0.301002 0.300951 0.300901 0.300874 0.300879 0.300902 0.300922 0.301094 0.301073 0.301039 0.301006
          0.300988 0.30099 0.301004 0.301017 0.301142 0.301129 0.301108 0.301088 0.301076 0.301077 0.301085 0.301093
          0.301175 0.301167 0.301154 0.301141 0.301134 0.301134 0.301139 0.301143 0.301191 0.301185 0.301176 0.301168
          0.301163 0.301163 0.301166 0.301168 0.300452 0.300324 0.300107 0.299883 0.299759 0.299808 0.299943 0.300046
          0.300512 0.300398 0.300205 0.300007 0.299898 0.299939 0.300056 0.300146 0.300617 0.300526 0.300374 0.30022
          0.300136 0.300164 0.30025 0.300319 0.30074 0.300675 0.300567 0.300459 0.300401 0.300416 0.300473 0.300519
          0.300857 0.300814 0.300744 0.300674 0.300637 0.300644 0.300678 0.300706 0.30095 0.300924 0.300881 0.300839
          0.300816 0.300819 0.300837 0.300853 0.301013 0.300997 0.300971 0.300946 0.300932 0.300933 0.300943 0.300952
          0.301044 0.301033 0.301015 0.300998 0.300988 0.300988 0.300994 0.301 0.2998 0.299536 0.299074 0.298567
          0.298273 0.298434 0.298779 0.299025 0.29991 0.299676 0.299268 0.298825 0.298568 0.298704 0.299 0.299214
          0.300101 0.299917 0.299603 0.29927 0.299084 0.29917 0.299381 0.299539 0.300325 0.300195 0.299978 0.299754
          0.299632 0.299678 0.29981 0.299912 0.300535 0.300451 0.300313 0.300174 0.300099 0.300121 0.300195 0.300256
          0.300703 0.300652 0.300569 0.300487 0.300443 0.300452 0.300492 0.300525 0.300815 0.300785 0.300735 0.300687
          0.300661 0.300664 0.300685 0.300703 0.300871 0.30085 0.300816 0.300783 0.300765 0.300766 0.300779 0.300791
          0.298866 0.298351 0.297406 0.296268 0.295507 0.296047 0.296913 0.297477 0.299052 0.298597 0.297768 0.296779
          0.29612 0.296579 0.297321 0.297807 0.299375 0.299024 0.298402 0.297698 0.29727 0.297533 0.298034 0.29838
          0.299751 0.29951 0.299094 0.298647 0.298394 0.298522 0.298815 0.29903 0.300103 0.299951 0.299694 0.299429
          0.299285 0.299341 0.299499 0.299621 0.300383 0.300292 0.300141 0.299991 0.299909 0.299932 0.300012 0.300077
          0.30057 0.300516 0.300428 0.300341 0.300294 0.300302 0.300343 0.300378 0.300662 0.300625 0.300565 0.300507
          0.300475 0.300478 0.300503 0.300525 0.297637 0.296698 0.294856 0.292316 0.290104 0.291973 0.294092 0.295311
          0.297921 0.297093 0.295478 0.293263 0.29131 0.292955 0.294788 0.295842 0.298424 0.297799 0.296632 0.295173
          0.294125 0.294921 0.296064 0.296782 0.299008 0.298588 0.297838 0.29698 0.296452 0.296789 0.29741 0.297835
          0.299552 0.299291 0.298844 0.298365 0.298094 0.29823 0.298544 0.298774 0.299982 0.299829 0.299573 0.299312
          0.299169 0.299221 0.299374 0.299493 0.30027 0.30018 0.300033 0.299887 0.299807 0.299827 0.299902 0.299964
          0.300413 0.300351 0.300252 0.300156 0.300103 0.300111 0.300156 0.300193 0.296213 0.294654 0.29132 0.285789
          0.278552 0.285301 0.290235 0.292642 0.296599 0.295213 0.292256 0.287298 0.280433 0.286864 0.291275 0.293393
          0.297303 0.296278 0.294239 0.291333 0.288596 0.290974 0.293431 0.294799 0.298128 0.297454 0.296199 0.29464
          0.29353 0.294367 0.295587 0.296358 0.298897 0.298487 0.29776 0.296943 0.296451 0.29675 0.29733 0.297734
          0.299508 0.29927 0.298863 0.298436 0.298197 0.298306 0.298577 0.29878 0.299919 0.29978 0.299549 0.299317
          0.29919 0.29923 0.299359 0.299462 0.300122 0.300028 0.299875 0.299724 0.299642 0.299659 0.299733 0.299795
          0.294879 0.292654 0.287434 0.276466 0.251688 0.275847 0.286034 0.290036 0.295313 0.29328 0.28846 0.277933
          0.251763 0.27739 0.287191 0.290885 0.296168 0.294666 0.291481 0.286225 0.279199 0.285755 0.290422 0.292701
          0.297205 0.296221 0.294313 0.291727 0.289512 0.291366 0.293504 0.294752 0.298193 0.297596 0.296509 0.295219
          0.294369 0.294962 0.295936 0.296578 0.298989 0.298643 0.298043 0.297388 0.297011 0.297215 0.297657 0.297976
          0.29953 0.299329 0.298992 0.298644 0.298454 0.298527 0.298734 0.298893 0.299801 0.299665 0.299442 0.29922
          0.2991 0.299131 0.299248 0.299343 0.294044 0.291667 0.286549 0.278114 0.267677 0.277335 0.284909 0.288693
          0.2944 0.292048 0.28659 0.27546 0.251674 0.274776 0.285079 0.28925 0.295235 0.293348 0.289257 0.282307
          0.272922 0.281728 0.287977 0.290976 0.296367 0.295074 0.292494 0.288808 0.28537 0.288361 0.2915 0.293257
          0.297512 0.29671 0.295214 0.293347 0.292019 0.293027 0.294499 0.295429 0.298468 0.298 0.297169 0.296231
          0.295665 0.296013 0.296682 0.297148 0.299132 0.298859 0.298393 0.297903 0.29763 0.297754 0.298064 0.298296
          0.299467 0.299283 0.298977 0.298668 0.298501 0.298555 0.298728 0.298865 0.293765 0.291523 0.286925 0.279911
          0.272083 0.279114 0.285243 0.28851 0.293966 0.291562 0.286063 0.275065 0.251681 0.274323 0.284449 0.288614
          0.294616 0.292417 0.287296 0.276576 0.251721 0.275953 0.285881 0.289784 0.295705 0.294112 0.290754 0.285306
          0.278311 0.284796 0.289619 0.292018 0.296923 0.29591 0.293945 0.291285 0.289031 0.290911 0.29311 0.294398
          0.297992 0.297395 0.296306 0.295011 0.294157 0.294751 0.295728 0.296372 0.298755 0.298406 0.297801 0.297143
          0.296763 0.296964 0.297405 0.297723 0.299146 0.298911 0.298517 0.298111 0.29789 0.297974 0.298214 0.2984
          0.293914 0.291984 0.288239 0.283144 0.278792 0.282395 0.286646 0.289158 0.293969 0.291809 0.287244 0.279805
          0.270364 0.279062 0.28566 0.288954 0.294364 0.292111 0.286851 0.275929 0.251703 0.275273 0.285388 0.289404
          0.295289 0.293492 0.289557 0.282727 0.273165 0.282179 0.288341 0.291236 0.296487 0.295297 0.292899 0.289408
          0.286036 0.288996 0.291981 0.293618 0.297609 0.296897 0.295563 0.293884 0.292664 0.293594 0.294916 0.295742
          0.298435 0.298018 0.297282 0.296453 0.295951 0.296251 0.296833 0.297237 0.298866 0.298585 0.298109 0.297611
          0.297334 0.297454 0.297763 0.297997 0.294212 0.292571 0.289492 0.285547 0.282495 0.284863 0.288023 0.289986
          0.294169 0.292274 0.288401 0.282418 0.275282 0.281725 0.286911 0.289607 0.294366 0.292209 0.28715 0.276431
          0.251717 0.275785 0.285715 0.289569 0.295102 0.293194 0.288639 0.278413 0.251788 0.277882 0.287411 0.290894
          0.296225 0.294927 0.292167 0.287513 0.280871 0.287087 0.291212 0.29317 0.297347 0.296564 0.295054 0.293007
          0.291205 0.2927 0.294368 0.295333 0.298197 0.297736 0.296912 0.295951 0.295326 0.295734 0.296429 0.296894
          0.298646 0.298336 0.297805 0.297241 0.296922 0.297071 0.29743 0.297696 0.294412 0.29297 0.290355 0.287226
          0.285136 0.286587 0.288974 0.290559 0.29434 0.292689 0.28951 0.285229 0.281612 0.284573 0.288098 0.290186
          0.294466 0.2926 0.28869 0.282435 0.274783 0.28179 0.287301 0.290086 0.295091 0.293388 0.28977 0.283816
          0.276076 0.283264 0.288553 0.291151 0.296123 0.294898 0.292455 0.288973 0.285753 0.288542 0.291497 0.29315
          0.297202 0.296431 0.294989 0.293187 0.291902 0.292874 0.294293 0.295186 0.298043 0.297576 0.29675 0.295821
          0.295261 0.295598 0.296255 0.296712 0.298493 0.298173 0.297628 0.297056 0.296739 0.296881 0.297241 0.297512
        </DataArray>
        <DataArray type="Float32" Name="process rank" NumberOfComponents="1" format="ascii">
          0 0 0 0 0 0 0 0 0 0 0 0
          0 0 0 0 0 0 0 0 0 0 0 0
          0 0 0 0 0 0 0 0 0 0 0 0
          0 0 0 0 0 0 0 0 0 0 0 0
          0 0 0 0 0 0 0 0 0 0 0 0
          0 0 0 0 0 0 0 0 0 0 0 0
          0 0 0 0 0 0 0 0 0 0 0 0
          0 0 0 0 0 0 0 0 0 0 0 0
          0 0 0 0 0 0 0 0 0 0 0 0
          0 0 0 0 0 0 0 0 0 0 0 0
          0 0 0 0 0 0 0 0 0 0 0 0
          0 0 0 0 0 0 0 0 0 0 0 0
          0 0 0 0 0 0 0 0 0 0 0 0
          0 0 0 0 0 0 0 0 0 0 0 0
          0 0 0 0 0 0 0 0 0 0 0 0
          0 0 0 0 0 0 0 0 0 0 0 0
          0 0 0 0 0 0 0 0 0 0 0 0
          0 0 0 0 0 0 0 0 0 0 0 0
          0 0 0 0 0 0 0 0 0 0 0 0
          0 0 0 0 0 0 0 0 0 0 0 0
          0 0 0 0 0 0 0 0 0 0 0 0
          0 0 0 0 0 0 0 0 0 0 0 0
          0 0 0 0 0 0 0 0 0 0 0 0
          0 0 0 0 0 0 0 0 0 0 0 0
          0 0 0 0 0 0 0 0 0 0 0 0
          0 0 0 0 0 0 0 0 0 0 0 0
          0 0 0 0 0 0 0 0 0 0 0 0
          0 0 0 0 0 0 0 0 0 0 0 0
          0 0 0 0 0 0 0 0 0 0 0 0
          0 0 0 0 0 0 0 0 0 0 0 0
          0 0 0 0 0 0 0 0 0 0 0 0
          0 0 0 0 0 0 0 0 0 0 0 0
          0 0 0 0 0 0 0 0 0 0 0 0
          0 0 0 0 0 0 0 0 0 0 0 0
          0 0 0 0 0 0 0 0 0 0 0 0
          0 0 0 0 0 0 0 0 0 0 0 0
          0 0 0 0 0 0 0 0 0 0 0 0
          0 0 0 0 0 0 0 0 0 0 0 0
          0 0 0 0 0 0 0 0 0 0 0 0
          0 0 0 0 0 0 0 0 0 0 0 0
          0 0 0 0 0 0 0 0 0 0 0 0
          0 0 0 0 0 0 0 0 0 0 0 0
          0 0 0 0 0 0 0 0 0 0 0 0
          0 0 0 0 0 0 0 0 0 0 0 0
          0 0 0 0 0 0 0 0 0 0 0 0
          0 0 0 0 0 0 0 0 0 0 0 0
          0 0 0 0 0 0 0 0 0 0 0 0
          0 0 0 0 0 0 0 0 0 0 0 0
          0 0 0 0 0 0 0 0 0 0 0 0
          0 0 0 0 0 0 0 0 0 0 0 0
          0 0 0 0 0 0 0 0 0 0 0 0
          0 0 0 0 0 0 0 0 0 0 0 0
          0 0 0 0 0 0 0 0 0 0 0 0
          0 0 0 0 0 0 0 0 0 0 0 0
          0 0 0 0 0 0 0 0 0 0 0 0
          0 0 0 0 0 0 0 0 0 0 0 0
          0 0 0 0 0 0 0 0 0 0 0 0
          0 0 0 0 0 0 0 0 0 0 0 0
          0 0 0 0 0 0 0 0 0 0 0 0
          0 0 0 0 0 0 0 0 0 0 0 0
          0 0 0 0 0 0 0 0 0 0 0 0
          0 0 0 0 0 0 0 0 0 0 0 0
          0 0 0 0 0 0 0 0 0 0 0 0
          0 0 0 0 0 0 0 0 0 0 0 0
          0 0 0 0 0 0 0 0 0 0 0 0
          0 0 0 0 0 0 0 0 0 0 0 0
          0 0 0 0 0 0 0 0 0 0 0 0
          0 0 0 0 0 0 0 0 0 0 0 0
          0 0 0 0 0 0 0 0 0 0 0 0
          0 0 0 0 0 0 0 0 0 0 0 0
          0 0 0 0 0 0 0 0 0 0 0 0
          0 0 0 0 0 0 0 0 0 0 0 0
          0 0 0 0 0 0 0 0 0 0 0 0
          0 0 0 0 0 0 0 0 0 0 0 0
          0 0 0 0 0 0 0 0 0 0 0 0
          0 0 0 0 0 0 0 0 0 0 0 0
          0 0 0 0 0 0 0 0 0 0 0 0
          0 0 0 0 0 0 0 0 0 0 0 0
          0 0 0 0 0 0 0 0 0 0 0 0
          0 0 0 0 0 0 0 0 0 0 0 0
        </DataArray>
      </CellData>
      <Points>
        <DataArray type="Float32" Name="Coordinates" NumberOfComponents="3" format="ascii">
          -0.04 -0.04 -0.15 -0.03 -0.04 -0.15 -0.04 -0.03 -0.15 -0.03 -0.03 -0.15
          -0.04 -0.04 -0.14 -0.03 -0.04 -0.14 -0.04 -0.03 -0.14 -0.03 -0.03 -0.14
          -0.02 -0.04 -0.15 -0.02 -0.03 -0.15 -0.02 -0.04 -0.14 -0.02 -0.03 -0.14
          -0.01 -0.04 -0.15 -0.01 -0.03 -0.15 -0.01 -0.04 -0.14 -0.01 -0.03 -0.14
          0 -0.04 -0.15 0 -0.03 -0.15 0 -0.04 -0.14 0 -0.03 -0.14
          0.01 -0.04 -0.15 0.01 -0.03 -0.15 0.01 -0.04 -0.14 0.01 -0.03 -0.14
          0.02 -0.04 -0.15 0.02 -0.03 -0.15 0.02 -0.04 -0.14 0.02 -0.03 -0.14
          0.03 -0.04 -0.15 0.03 -0.03 -0.15 0.03 -0.04 -0.14 0.03 -0.03 -0.14
          0.04 -0.04 -0.15 0.04 -0.03 -0.15 0.04 -0.04 -0.14 0.04 -0.03 -0.14
          -0.04 -0.02 -0.15 -0.03 -0.02 -0.15 -0.04 -0.02 -0.14 -0.03 -0.02 -0.14
          -0.02 -0.02 -0.15 -0.02 -0.02 -0.14 -0.01 -0.02 -0.15 -0.01 -0.02 -0.14
          0 -0.02 -0.15 0 -0.02 -0.14 0.01 -0.02 -0.15 0.01 -0.02 -0.14
          0.02 -0.02 -0.15 0.02 -0.02 -0.14 0.03 -0.02 -0.15 0.03 -0.02 -0.14
          0.04 -0.02 -0.15 0.04 -0.02 -0.14 -0.04 -0.01 -0.15 -0.03 -0.01 -0.15
          -0.04 -0.01 -0.14 -0.03 -0.01 -0.14 -0.02 -0.01 -0.15 -0.02 -0.01 -0.14
          -0.01 -0.01 -0.15 -0.01 -0.01 -0.14 0 -0.01 -0.15 0 -0.01 -0.14
          0.01 -0.01 -0.15 0.01 -0.01 -0.14 0.02 -0.01 -0.15 0.02 -0.01 -0.14
          0.03 -0.01 -0.15 0.03 -0.01 -0.14 0.04 -0.01 -0.15 0.04 -0.01 -0.14
          -0.04 0 -0.15 -0.03 0 -0.15 -0.04 0 -0.14 -0.03 0 -0.14
          -0.02 0 -0.15 -0.02 0 -0.14 -0.01 0 -0.15 -0.01 0 -0.14
          0 0 -0.15 0 0 -0.14 0.01 0 -0.15 0.01 0 -0.14
          0.02 0 -0.15 0.02 0 -0.14 0.03 0 -0.15 0.03 0 -0.14
          0.04 0 -0.15 0.04 0 -0.14 -0.04 0.01 -0.15 -0.03 0.01 -0.15
          -0.04 0.01 -0.14 -0.03 0.01 -0.14 -0.02 0.01 -0.15 -0.02 0.01 -0.14
          -0.01 0.01 -0.15 -0.01 0.01 -0.14 0 0.01 -0.15 0 0.01 -0.14
          0.01 0.01 -0.15 0.01 0.01 -0.14 0.02 0.01 -0.15 0.02 0.01 -0.14
          0.03 0.01 -0.15 0.03 0.01 -0.14 0.04 0.01 -0.15 0.04 0.01 -0.14
          -0.04 0.02 -0.15 -0.03 0.02 -0.15 -0.04 0.02 -0.14 -0.03 0.02 -0.14
          -0.02 0.02 -0.15 -0.02 0.02 -0.14 -0.01 0.02 -0.15 -0.01 0.02 -0.14
          0 0.02 -0.15 0 0.02 -0.14 0.01 0.02 -0.15 0.01 0.02 -0.14
          0.02 0.02 -0.15 0.02 0.02 -0.14 0.03 0.02 -0.15 0.03 0.02 -0.14
          0.04 0.02 -0.15 0.04 0.02 -0.14 -0.04 0.03 -0.15 -0.03 0.03 -0.15
          -0.04 0.03 -0.14 -0.03 0.03 -0.14 -0.02 0.03 -0.15 -0.02 0.03 -0.14
          -0.01 0.03 -0.15 -0.01 0.03 -0.14 0 0.03 -0.15 0 0.03 -0.14
          0.01 0.03 -0.15 0.01 0.03 -0.14 0.02 0.03 -0.15 0.02 0.03 -0.14
          0.03 0.03 -0.15 0.03 0.03 -0.14 0.04 0.03 -0.15 0.04 0.03 -0.14
          -0.04 0.04 -0.15 -0.03 0.04 -0.15 -0.04 0.04 -0.14 -0.03 0.04 -0.14
          -0.02 0.04 -0.15 -0.02 0.04 -0.14 -0.01 0.04 -0.15 -0.01 0.04 -0.14
          0 0.04 -0.15 0 0.04 -0.14 0.01 0.04 -0.15 0.01 0.04 -0.14
          0.02 0.04 -0.15 0.02 0.04 -0.14 0.03 0.04 -0.15 0.03 0.04 -0.14
          0.04 0.04 -0.15 0.04 0.04 -0.14 -0.04 -0.04 -0.13 -0.03 -0.04 -0.13
          -0.04 -0.03 -0.13 -0.03 -0.03 -0.13 -0.02 -0.04 -0.13 -0.02 -0.03 -0.13
          -0.01 -0.04 -0.13 -0.01 -0.03 -0.13 0 -0.04 -0.13 0 -0.03 -0.13
          0.01 -0.04 -0.13 0.01 -0.03 -0.13 0.02 -0.04 -0.13 0.02 -0.03 -0.13
          0.03 -0.04 -0.13 0.03 -0.03 -0.13 0.04 -0.04 -0.13 0.04 -0.03 -0.13
          -0.04 -0.02 -0.13 -0.03 -0.02 -0.13 -0.02 -0.02 -0.13 -0.01 -0.02 -0.13
          0 -0.02 -0.13 0.01 -0.02 -0.13 0.02 -0.02 -0.13 0.03 -0.02 -0.13
          0.04 -0.02 -0.13 -0.04 -0.01 -0.13 -0.03 -0.01 -0.13 -0.02 -0.01 -0.13
          -0.01 -0.01 -0.13 0 -0.01 -0.13 0.01 -0.01 -0.13 0.02 -0.01 -0.13
          0.03 -0.01 -0.13 0.04 -0.01 -0.13 -0.04 0 -0.13 -0.03 0 -0.13
          -0.02 0 -0.13 -0.01 0 -0.13 0 0 -0.13 0.01 0 -0.13
          0.02 0 -0.13 0.03 0 -0.13 0.04 0 -0.13 -0.04 0.01 -0.13
          -0.03 0.01 -0.13 -0.02 0.01 -0.13 -0.01 0.01 -0.13 0 0.01 -0.13
          0.01 0.01 -0.13 0.02 0.01 -0.13 0.03 0.01 -0.13 0.04 0.01 -0.13
          -0.04 0.02 -0.13 -0.03 0.02 -0.13 -0.02 0.02 -0.13 -0.01 0.02 -0.13
          0 0.02 -0.13 0.01 0.02 -0.13 0.02 0.02 -0.13 0.03 0.02 -0.13
          0.04 0.02 -0.13 -0.04 0.03 -0.13 -0.03 0.03 -0.13 -0.02 0.03 -0.13
          -0.01 0.03 -0.13 0 0.03 -0.13 0.01 0.03 -0.13 0.02 0.03 -0.13
          0.03 0.03 -0.13 0.04 0.03 -0.13 -0.04 0.04 -0.13 -0.03 0.04 -0.13
          -0.02 0.04 -0.13 -0.01 0.04 -0.13 0 0.04 -0.13 0.01 0.04 -0.13
          0.02 0.04 -0.13 0.03 0.04 -0.13 0.04 0.04 -0.13 -0.04 -0.04 -0.12
          -0.03 -0.04 -0.12 -0.04 -0.03 -0.12 -0.03 -0.03 -0.12 -0.02 -0.04 -0.12
          -0.02 -0.03 -0.12 -0.01 -0.04 -0.12 -0.01 -0.03 -0.12 0 -0.04 -0.12
          0 -0.03 -0.12 0.01 -0.04 -0.12 0.01 -0.03 -0.12 0.02 -0.04 -0.12
          0.02 -0.03 -0.12 0.03 -0.04 -0.12 0.03 -0.03 -0.12 0.04 -0.04 -0.12
          0.04 -0.03 -0.12 -0.04 -0.02 -0.12 -0.03 -0.02 -0.12 -0.02 -0.02 -0.12
          -0.01 -0.02 -0.12 0 -0.02 -0.12 0.01 -0.02 -0.12 0.02 -0.02 -0.12
          0.03 -0.02 -0.12 0.04 -0.02 -0.12 -0.04 -0.01 -0.12 -0.03 -0.01 -0.12
          -0.02 -0.01 -0.12 -0.01 -0.01 -0.12 0 -0.01 -0.12 0.01 -0.01 -0.12
          0.02 -0.01 -0.12 0.03 -0.01 -0.12 0.04 -0.01 -0.12 -0.04 0 -0.12
          -0.03 0 -0.12 -0.02 0 -0.12 -0.01 0 -0.12 0 0 -0.12
          0.01 0 -0.12 0.02 0 -0.12 0.03 0 -0.12 0.04 0 -0.12
          -0.04 0.01 -0.12 -0.03 0.01 -0.12 -0.02 0.01 -0.12 -0.01 0.01 -0.12
          0 0.01 -0.12 0.01 0.01 -0.12 0.02 0.01 -0.12 0.03 0.01 -0.12
          0.04 0.01 -0.12 -0.04 0.02 -0.12 -0.03 0.02 -0.12 -0.02 0.02 -0.12
          -0.01 0.02 -0.12 0 0.02 -0.12 0.01 0.02 -0.12 0.02 0.02 -0.12
          0.03 0.02 -0.12 0.04 0.02 -0.12 -0.04 0.03 -0.12 -0.03 0.03 -0.12
          -0.02 0.03 -0.12 -0.01 0.03 -0.12 0 0.03 -0.12 0.01 0.03 -0.12
          0.02 0.03 -0.12 0.03 0.03 -0.12 0.04 0.03 -0.12 -0.04 0.04 -0.12
          -0.03 0.04 -0.12 -0.02 0.04 -0.12 -0.01 0.04 -0.12 0 0.04 -0.12
          0.01 0.04 -0.12 0.02 0.04 -0.12 0.03 0.04 -0.12 0.04 0.04 -0.12
          -0.04 -0.04 -0.11 -0.03 -0.04 -0.11 -0.04 -0.03 -0.11 -0.03 -0.03 -0.11
          -0.02 -0.04 -0.11 -0.02 -0.03 -0.11 -0.01 -0.04 -0.11 -0.01 -0.03 -0.11
          0 -0.04 -0.11 0 -0.03 -0.11 0.01 -0.04 -0.11 0.01 -0.03 -0.11
          0.02 -0.04 -0.11 0.02 -0.03 -0.11 0.03 -0.04 -0.11 0.03 -0.03 -0.11
          0.04 -0.04 -0.11 0.04 -0.03 -0.11 -0.04 -0.02 -0.11 -0.03 -0.02 -0.11
          -0.02 -0.02 -0.11 -0.01 -0.02 -0.11 0 -0.02 -0.11 0.01 -0.02 -0.11
          0.02 -0.02 -0.11 0.03 -0.02 -0.11 0.04 -0.02 -0.11 -0.04 -0.01 -0.11
          -0.03 -0.01 -0.11 -0.02 -0.01 -0.11 -0.01 -0.01 -0.11 0 -0.01 -0.11
          0.01 -0.01 -0.11 0.02 -0.01 -0.11 0.03 -0.01 -0.11 0.04 -0.01 -0.11
          -0.04 0 -0.11 -0.03 0 -0.11 -0.02 0 -0.11 -0.01 0 -0.11
          0 0 -0.11 0.01 0 -0.11 0.02 0 -0.11 0.03 0 -0.11
          0.04 0 -0.11 -0.04 0.01 -0.11 -0.03 0.01 -0.11 -0.02 0.01 -0.11
          -0.01 0.01 -0.11 0 0.01 -0.11 0.01 0.01 -0.11 0.02 0.01 -0.11
          0.03 0.01 -0.11 0.04 0.01 -0.11 -0.04 0.02 -0.11 -0.03 0.02 -0.11
          -0.02 0.02 -0.11 -0.01 0.02 -0.11 0 0.02 -0.11 0.01 0.02 -0.11
          0.02 0.02 -0.11 0.03 0.02 -0.11 0.04 0.02 -0.11 -0.04 0.03 -0.11
          -0.03 0.03 -0.11 -0.02 0.03 -0.11 -0.01 0.03 -0.11 0 0.03 -0.11
          0.01 0.03 -0.11 0.02 0.03 -0.11 0.03 0.03 -0.11 0.04 0.03 -0.11
          -0.04 0.04 -0.11 -0.03 0.04 -0.11 -0.02 0.04 -0.11 -0.01 0.04 -0.11
          0 0.04 -0.11 0.01 0.04 -0.11 0.02 0.04 -0.11 0.03 0.04 -0.11
          0.04 0.04 -0.11 -0.04 -0.04 -0.1 -0.03 -0.04 -0.1 -0.04 -0.03 -0.1
          -0.03 -0.03 -0.1 -0.02 -0.04 -0.1 -0.02 -0.03 -0.1 -0.01 -0.04 -0.1
          -0.01 -0.03 -0.1 0 -0.04 -0.1 0 -0.03 -0.1 0.01 -0.04 -0.1
          0.01 -0.03 -0.1 0.02 -0.04 -0.1 0.02 -0.03 -0.1 0.03 -0.04 -0.1
          0.03 -0.03 -0.1 0.04 -0.04 -0.1 0.04 -0.03 -0.1 -0.04 -0.02 -0.1
          -0.03 -0.02 -0.1 -0.02 -0.02 -0.1 -0.01 -0.02 -0.1 0 -0.02 -0.1
          0.01 -0.02 -0.1 0.02 -0.02 -0.1 0.03 -0.02 -0.1 0.04 -0.02 -0.1
          -0.04 -0.01 -0.1 -0.03 -0.01 -0.1 -0.02 -0.01 -0.1 -0.01 -0.01 -0.1
          0 -0.01 -0.1 0.01 -0.01 -0.1 0.02 -0.01 -0.1 0.03 -0.01 -0.1
          0.04 -0.01 -0.1 -0.04 0 -0.1 -0.03 0 -0.1 -0.02 0 -0.1
          -0.01 0 -0.1 0 0 -0.1 0.01 0 -0.1 0.02 0 -0.1
          0.03 0 -0.1 0.04 0 -0.1 -0.04 0.01 -0.1 -0.03 0.01 -0.1
          -0.02 0.01 -0.1 -0.01 0.01 -0.1 0 0.01 -0.1 0.01 0.01 -0.1
          0.02 0.01 -0.1 0.03 0.01 -0.1 0.04 0.01 -0.1 -0.04 0.02 -0.1
          -0.03 0.02 -0.1 -0.02 0.02 -0.1 -0.01 0.02 -0.1 0 0.02 -0.1
          0.01 0.02 -0.1 0.02 0.02 -0.1 0.03 0.02 -0.1 0.04 0.02 -0.1
          -0.04 0.03 -0.1 -0.03 0.03 -0.1 -0.02 0.03 -0.1 -0.01 0.03 -0.1
          0 0.03 -0.1 0.01 0.03 -0.1 0.02 0.03 -0.1 0.03 0.03 -0.1
          0.04 0.03 -0.1 -0.04 0.04 -0.1 -0.03 0.04 -0.1 -0.02 0.04 -0.1