<?xml version="1.0"?>
<VTKFile type="UnstructuredGrid" version="0.1" byte_order="LittleEndian">
  <UnstructuredGrid>
    <Piece NumberOfCells="1900" NumberOfPoints="2420">
      <CellData Scalars="p (Pa)">
        <DataArray type="Float32" Name="p (Pa)" NumberOfComponents="1" format="ascii">
          98688 98664.4 98595.3 98482.2 98326.8 98131.7 97903.9 97660.2 97435.7 97289.8 98774.7 98751.2
          98682.5 98571 98418.7 98229.2 98010 97778 97566.8 97431 98917.9 98894.2 98825.5 98715.2
          98566.7 98384.4 98176.7 97960.3 97766.6 97644.1 99091.6 99067.2 98997.4 98886.9 98740.4 98563.8
          98366 98163.6 97985.7 97874.9 99275.8 99249.9 99177.2 99064.3 98917.3 98743.2 98551.8 98359.4
          98192.9 98090.7 99457.8 99429.1 99350.8 99232.6 99082.4 98907.7 98718.7 98531.8 98372.5 98275.7
          99628.3 99595 99508.4 99382 99225.6 99047.5 98857.8 98672.7 98516.9 98423.1 99777.5 99737.7
          99640.5 99503.7 99339 99155.5 98962.9 98777.3 98622.4 98529.8 99891.3 99843.4 99734.8 99587.3
          99414.1 99224.8 99029 98841.7 98686.6 98594.2 99944.8 99889.7 99772.8 99618.6 99440.7 99248.3
          99050.7 98862.4 98706.8 98614.4 98410.9 98386.2 98313.8 98195.2 98031.6 97825.4 97583.3 97322.5
          97080.4 96922 98501.4 98476.8 98404.9 98287.9 98127.9 97928.1 97695.7 97448.2 97221.2 97074.4
          98650.8 98625.9 98553.8 98438 98282.1 98090.4 97871 97641.3 97434.4 97302.7 98833.9 98807.8
          98733.6 98617 98463.1 98277.5 98069.3 97855.4 97666.4 97548.1 99032.2 99003.4 98924.3 98803.4
          98647.8 98464.5 98263.2 98060.5 97884.5 97776.1 99235 99201.1 99112.6 98983.1 98821.6 98636.4
          98437.3 98240.6 98072.7 97970.5 99436.6 99393.2 99289.8 99146.4 98974.9 98783.5 98582.6 98387.6
          98223.5 98124.7 99632 99572.1 99446.7 99284.4 99098.9 98898.7 98692.9 98496.7 98333.6 98236.1
          99808 99722.4 99569 99384.6 99183.8 98974 98762.8 98564 98400.3 98303.1 99919.6 99806.4
          99627 99425.9 99215.4 99000.1 98785.8 98585.5 98421.3 98324 98116.2 98089.2 98010.1 97880.1
          97700 97471.2 97199.9 96904.3 96626.3 96442 98214 98187.1 98108.6 97980.7 97805 97584.2
          97325.1 97045.9 96786.6 96616.8 98374.8 98347.4 98268.4 98141.9 97971.3 97760.4 97517.3 97260.1
          97025.6 96874.7 98574.5 98545 98462.6 98334.2 98165.5 97962 97732.6 97495 97282.7 97148.5
          98798.1 98763.8 98672.5 98536.5 98364.5 98163.2 97942 97718 97522.1 97400.2 99038.9 98994.4
          98887 98736.3 98553.9 98348.5 98129.4 97912.8 97726.8 97612.9 99299.2 99234 99098.7 98924.4
          98724.7 98508.9 98286.2 98071.3 97890.1 97780.5 99584.7 99479.4 99300.5 99091.7 98868.3 98636.8
          98406.1 98188.9 98008.7 97900.9 99884.3 99714.4 99475.7 99223.1 98971.4 98723 98482.9 98261.5
          98080.5 97972.9 100182 99882.8 99579.3 99286.1 99013 98754 98508.3 98284.5 98102.7 97995
          97808.4 97778 97688.6 97541.1 97335.1 97070.9 96753.5 96402.5 96067.2 95841.5 97915.5 97885.3
          97797 97652.6 97452.9 97199.3 96897.9 96568.3 96257 96049.7 98088.7 98057.9 97969.4 97827.5
          97634.9 97394.7 97114.4 96813.4 96534.2 96351.4 98304.4 98271 98178.4 98034.7 97845.4 97615.4
          97353.3 97077.9 96827.9 96667.1 98551.1 98510.5 98406.2 98253.2 98060.4 97834 97583.3 97326.2
          97097.9 96953.7 98829.6 98772.7 98644.8 98471.6 98266 98035.2 97788 97541.2 97326.6 97193.3
          99155.1 99060.5 98890.2 98683 98453.8 98210 97958.9 97715.1 97507.5 97380.4 99557.3 99380.2
          99138.3 98879.3 98615.4 98351 98089.9 97843.7 97638.2 97513.9 100016 99724.5 99375.3 99044.2
          98736.9 98447.6 98174.1 97922.9 97716.7 97593.1 101637 100013 99550.9 99136.3 98790.1 98483
          98201.6 97947.3 97740.1 97616.6 97502 97466.9 97363.8 97192.5 96950.9 96636.8 96254.1 95824
          95406.6 95121.6 97617.4 97583 97482 97315.8 97083.5 96784.4 96423.1 96020.9 95633.8 95371.4
          97797.2 97762.7 97663.1 97501.9 97280.5 97000.3 96667.6 96303.2 95957.9 95727.1 98017.9 97981.5
          97879.3 97718.8 97504.3 97239.6 96932.2 96602.5 96296.3 96095 98266.9 98224.6 98113 97945.6
          97730.7 97473.8 97183.7 96880 96603.8 96425.5 98541.6 98486.5 98354.9 98170.5 97945.7 97687.7
          97405.5 97117.6 96861.6 96699.2 98847.2 98765.6 98599.2 98385.6 98140.6 97872.3 97589.2 97308.3
          97063.8 96911 99190.5 99058.1 98837.5 98580.9 98306 98019.8 97729 97448.2 97208.5 97060.8
          99566.1 99345.2 99049 98737.7 98426.9 98119.2 97817.5 97533.2 97294.4 97148.7 99925.7 99562.8
          99177.5 98814.2 98475.3 98153.2 97844.5 97557.5 97318.4 97173.3 97230.6 97190.1 97070.4 96870.4
          96585.1 96208 95741 95207.9 94683.5 94322 97349.5 97310.2 97194.6 97002.5 96730.5 96373.7
          95934.9 95436.7 94948.1 94611.2 97523.1 97484.7 97372.9 97189.6 96933.4 96602.7 96201.6 95751.7
          95315 95016.1 97731.3 97692.3 97581.1 97402.3 97158.4 96850.4 96483.9 96080.2 95694.6 95434.1
          97962 97919.4 97802.7 97622 97383.2 97089.8 96749 96381.8 96037.7 95809 98210.3 98159.4
          98029.1 97837.6 97594.7 97306.3 96980.7 96638.1 96323.8 96118.4 98474.3 98407.3 98252.8 98040.4
          97784.1 97491.3 97170.9 96842.2 96546.6 96356.7 98749.7 98653.6 98462.4 98219.3 97941.4 97636.7
          97313.7 96990.1 96704.8 96523.8 99019.9 98875.4 98635.5 98354.8 98051.3 97731.3 97401.5 97077.9
          96796.7 96620.3 99228.1 99011.7 98722.4 98411 98089.2 97759 97424.2 97099.3 96819.2 96644.4
          97066.9 97020.5 96882.8 96650.9 96317.1 95872.4 95313.2 94664.4 94016.4 93565.8 97179.2 97134.5
          97002.6 96781.3 96464.5 96045.1 95519.7 94910.4 94299.2 93870.4 97322.1 97279.3 97153.6 96944.8
          96649.5 96262.2 95781.9 95228.1 94675.2 94286.9 97486.8 97444.8 97323.2 97124.9 96848.4 96490.8
          96052.8 95555.1 95064.2 94721.9 97671.4 97628.3 97506.3 97311.8 97046.4 96709.6 96305.9 95855.7
          95418.7 95118.1 97871.4 97823.8 97694.5 97495.4 97232.2 96907.4 96527.1 96111.9 95716.6 95449.1
          98080.2 98023.4 97879.1 97667.4 97397.9 97075.7 96708 96315.6 95949.2 95705.3 98288.2 98215.5
          98047.9 97815.9 97533 97205.7 96841.8 96461.7 96113.2 95884.5 98473.1 98376 98178.6 97922.2
          97622.4 97285.7 96920 96544.7 96205.5 95985.4 98580.2 98454.1 98230.7 97956.1 97644.3 97300.6
          96932 96557.5 96221.7 96005.2 97065 97015.7 96869.5 96622.3 96262.7 95774.9 95147.2 94398.6
          93633.1 93087.9 97161.1 97113.7 96973.3 96736.5 96393.5 95929.9 95334.7 94624.2 93892 93363.5
          97256.1 97210.5 97076 96850.2 96525.3 96089.4 95534 94876.5 94199.3 93708.2 97351.1 97306.7
          97176.7 96960.4 96652.2 96243.6 95731 95130.7 94517.5 94073.7 97453.7 97409.4 97281.2 97070.9
          96776.3 96392.6 95918.1 95369.6 94815.8 94420 97572.5 97526.4 97395.7 97186.5 96899.5 96532.2
          96085.3 95578.4 95075.7 94722 97706 97655 97515.9 97300.2 97012.2 96652.1 96223.6 95747.1
          95283.5 94962.9 97839 97779.5 97626.4 97398.2 97102.8 96742.8 96323.6 95866.5 95429.9 95132.7
          97948.6 97877.1 97706.1 97462.2 97155.8 96790.9 96374.2 95927.3 95506.8 95224.3 97990.9 97907.6
          97722.5 97466.7 97151.5 96781.4 96363.2 95919.3 95505.7 95230.2 97211.2 97162.1 97017.2 96773
          96418.8 95938 95315 94558 93754 93151.6 97289.6 97242 97101.7 96865.8 96524.6 96062.6
          95464.4 94736.3 93957.7 93367.9 97336.9 97290.6 97154.2 96925.4 96595.1 96149.1 95573 94872.5
          94122 93551.1 97358.6 97313.2 97179.6 96955.9 96634 96201.1 95644.8 94971.5 94253.9 93712.4
          97367.6 97322.4 97189.7 96968.7 96652.8 96231 95693.6 95051.6 94378.1 93876.4 97378.5 97332.4
          97198.2 96977.2 96664.6 96252.6 95736.1 95128.6 94501 94040.6 97403.6 97354.9 97216.1 96991.5
          96679.5 96274.8 95774 95194.4 94607.2 94185 97441.9 97388.6 97240.8 97007.5 96689.9 96285.2
          95793.7 95235.5 94681 94290 97469 97409.3 97250.1 97005.3 96678.7 96269.8 95781.5 95236.5
          94704.9 94336.5 97452.4 97387.2 97218.7 96964.2 96629.1 96213.9 95723.7 95183.2 94663.2 94307.6
          97451.5 97403.8 97264.2 97031.8 96698.9 96252.2 95678.1 94980.2 94228.4 93648.6 97516.1 97469.5
          97333.1 97106.6 96782.8 96349.4 95793 95116.6 94385.8 93819.2 97526.9 97481.1 97347 97124.1
          96805.5 96378.7 95830.3 95162.2 94438 93874.1 97490.5 97445.1 97312 97090.2 96772.5 96346.1
          95796.9 95126.4 94397.8 93829.7 97420.3 97374.7 97240.8 97017.4 96696.6 96265.4 95709.5 95030.9
          94295.2 93724.1 97331.1 97284.5 97147.8 96919.6 96592.4 96153.1 95588.4 94902.8 94168.4 93608
          97237.4 97188.8 97046.9 96811.4 96475.2 96026.5 95456 94773.7 94056.8 93521.8 97151.1 97099.3
          96950 96704.9 96358.8 95902.3 95328.5 94652.8 93958.2 93453.5 97074.6 97018.7 96859.9 96602.6
          96243.5 95775.3 95195.5 94526.4 93855.1 93380.1 96985.6 96925.8 96758.1 96488.9 96116.6 95635.6
          95047.5 94380.8 93726.6 93274.3 97734.5 97687.6 97552.4 97331.2 97020.5 96611.6 96095.5 95477.6
          94817.6 94308.8 97790.9 97744.6 97611.2 97393.7 97089.1 96689.3 96185.9 95584.1 94941.7 94446.2
          97776.9 97731.3 97599.3 97383.7 97081 96682.8 96180 95576.8 94930.2 94429.1 97700.8 97655.5
          97523.9 97307.6 97002.2 96597.9 96084 95463.1 94792.4 94268.9 97575.1 97529.6 97396.5 97176.3
          96862.8 96444.6 95908.7 95255.8 94545.2 93986.9 97412.2 97365.5 97228.5 97000.2 96673 96233.1
          95665.5 94970 94210.6 93614.9 97224.2 97175.2 97031.3 96790.6 96444 95975.8 95370.1 94628.6
          93825.2 93205.5 97023.7 96971.4 96817.8 96560.8 96190.2 95690 95045.8 94268 93445.6 92832.2
          96824.2 96767.6 96602.3 96326.8 95931.2 95400.6 94725.3 93926 93108.1 92523.2 96641.1 96580.3
          96403.3 96109.1 95688.4 95128 94424.8 93613.4 92814.3 92267.1 98029.1 97981.3 97846.2 97630.6
          97335.2 96955.9 96488.7 95942.4 95372 94940.9 98082.4 98034.6 97900 97686.2 97394.4 97021.3
          96563.1 96028.9 95472.7 95053.5 98052 98004.9 97871.8 97659.4 97368.5 96994.9 96534.6 95995.6
          95431.7 95004.5 97948.7 97902.4 97770.5 97557.8 97263.7 96882.6 96408.6 95848 95255 94800.7
          97786.1 97740 97607.4 97391.1 97088.3 96691.2 96190.7 95590.8 94947.1 94447 97575 97528.1
          97391.9 97167.1 96848.5 96424.8 95883.5 95225.7 94510.4 93948.2 97324.6 97275.6 97132.1 96892.8
          96549.5 96087.5 95490.2 94757.2 93956 93326.8 97045.5 96992.9 96837.8 96577.2 96199.9 95687.5
          95021 94203.6 93320.6 92644.2 96754.2 96696.3 96525.7 96237.5 95817.9 95246.1 94504.8 93611.1
          92681.6 92008.4 96479.8 96416 96227.6 95908.6 95443.3 94812.1 94005.6 93064 92138.4 91514.3
          98322.1 98270.4 98129.4 97911.5 97621.7 97260 96826.4 96333.1 95832.2 95464 98377.7 98325
          98182.7 97964.6 97676.3 97318.2 96890.9 96406.7 95916.9 95558.4 98334 98282.8 98143 97927
          97639.7 97281.2 96851.3 96361.8 95864.3 95498.2 98208.3 98159.2 98022.6 97808.4 97519.8 97155.1
          96712.9 96203.3 95678.7 95287.5 98017.9 97970.2 97835.2 97619.8 97324.6 96945.8 96478.9 95931.7
          95358.1 94922.3 97774.1 97726.5 97589.9 97368.1 97058.9 96654.8 96147.5 95541.6 94893.5 94391
          97484.7 97435.6 97293.1 97058 96724.6 96281.1 95714.1 95024.9 94275.8 93687.5 97158.4 97106
          96952.3 96695.4 96325.4 95825.4 95177 94381 93514.1 92838.6 96812 96754.2 96583.8 96295.9
          95876 95302 94552.8 93637.9 92666.3 91943.1 96482.6 96418.1 96227 95901.5 95422.4 94763.7
          93907.9 92889.6 91870.5 91175.9 98611.5 98551.5 98396.7 98167.2 97872.5 97515.9 97100.4 96640.6
          96186.5 95861.6 98676 98613 98454.1 98221.8 97926.2 97571 97159.4 96706.1 96260.5 95943.2
          98617.5 98557.9 98403.8 98175.5 97882.3 97527.5 97114.1 96656.4 96204.2 95880.5 98467.2 98412.1
          98265.2 98042.4 97751.1 97393.2 96970.5 96496.2 96021.1 95676.4 98249.7 98198.2 98056.7 97836.7
          97542.9 97174.8 96731.8 96225.1 95707.1 95323.5 97978.4 97928.7 97788.9 97566.5 97262.7 96873.7
          96395.1 95835.1 95248.5 94803 97661 97611.2 97468.3 97236.1 96911.8 96487.3 95952.9 95312.8
          94626.3 94092.5 97305.5 97253.3 97101.5 96850.3 96492.2 96013.3 95397.9 94647 93829.8 93188.7
          96928.6 96871.8 96704.8 96424.2 96016.9 95462.3 94739.1 93850.7 92891.5 92157.2 96571.3 96508.1
          96321.1 96002.8 95534.2 94887.7 94039.8 93010.9 91946.3 91188.7 98901.6 98826.1 98647.2 98395.7
          98085.4 97721.9 97310.4 96866.9 96439.7 96141.1 98985.7 98902.3 98714.2 98455.8 98141.5 97776.8
          97367 96927.8 96507 96214.3 98904.6 98829.2 98650.9 98400.2 98090.8 97728.4 97318.2 96875.9
          96449.8 96152 98720.8 98655.1 98490.4 98250.8 97948.1 97586.7 97171 96716.2 96271.8 95956.8
          98470.2 98412 98258.3 98027.3 97727.4 97361 96930.3 96449.1 95968.6 95620.7 98169.1 98115.4
          97968.3 97740.1 97435.6 97053.9 96593.9 96066.6 95525.6 95123 97825.5 97773.7 97627.5 97394.4
          97074.8 96663.4 96154 95553.8 94919.9 94434 97447 97394.3 97242.8 96995.1 96646.8 96186.7
          95602.2 94895.5 94130.8 93531.6 97050.2 96994.2 96830.6 96557.7 96165 95633.9 94944.1 94095.9
          93170.8 92448.3 96677.9 96616.6 96435.5 96128.7 95678.6 95058.1 94240.6 93233 92157.3 91356.8
          99199.5 99096.1 98879.9 98594.4 98257.3 97875.9 97456.2 97014.8 96598.8 96313.3 99322.3 99199.9
          98964.2 98664.9 98319.2 97933.4 97512.9 97073.8 96662.2 96381.2 99200.9 99097.7 98881.8 98596.8
          98260.3 97879.6 97460.8 97020.1 96604.8 96319.8 98967.4 98883.9 98691.9 98426.5 98103.3 97728.9
          97309.1 96860.2 96430.5 96131.7 98672.3 98602.9 98430.5 98181.3 97867.6 97494.2 97065 96595.5
          96135.9 95809.4 98333.9 98273.5 98114.3 97874.6 97562.7 97180.1 96728 96219.2 95706.7 95332
          97960 97904.4 97751.4 97512.7 97191.7 96785.6 96291 95716.8 95119.2 94667.4 97557.4 97503.1
          97349 97101.1 96757.3 96309 95745.9 95071.8 94347.8 93783.5 97142.4 97086.3 96923.9 96655.8
          96273.4 95760.4 95097.9 94284.5 93393.2 92689.5 96758 96698 96521.6 96224.2 95790.1 95193.5
          94406.1 93426 92355.8 91532 99510.7 99359.3 99088.6 98755.5 98380.5 97971.1 97533.3 97083.1
          96666.5 96384.7 99702.6 99510.9 99202.2 98843.2 98452.1 98033.8 97592.1 97142 96728.2 96449.7
          99511.3 99360 99089.6 98756.8 98382.2 97973.4 97536.1 97086.4 96670.3 96388.8 99203.7 99090.6
          98860 98559.1 98206.8 97810.9 97377.9 96924.1 96497.3 96204.6 98847.1 98760.1 98561.2 98286.7
          97952.2 97564.1 97127.6 96658.6 96206.9 95890.4 98460.2 98389.5 98212.9 97956.2 97630.7 97240
          96786.5 96284.2 95785.6 95425.7 98048.9 97987.4 97823.8 97574.8 97246.7 96838.7 96348.7 95787.1
          95209.5 94777.6 97617.8 97560.5 97401 97148.5 96803.4 96359 95806.4 95150.5 94451 93908.7
          97182 97124.9 96961.1 96693.4 96315.3 95811.8 95165.2 94373.1 93504.1 92814.4 96784.1 96724.5
          96550 96257.5 95832.8 95251 94483.1 93521.9 92457.8 91620.9 99826.2 99599.3 99254.3 98859.3
          98436.4 97991.6 97529.1 97063.4 96639.1 96355.1 100172 99826.3 99415 98973.3 98522.2 98061.7
          97591.6 97123.6 96700.6 96419.1 99826.5 99599.7 99254.8 98860.1 98437.4 97993 97530.9 97065.6
          96641.7 96357.9 99415.7 99255.4 98973.1 98627.6 98239.5 97816.6 97364.5 96899.2 96467.6 96174.7
          98975.4 98861.9 98628.8 98323 97962.8 97555.4 97105.7 96629.8 96177.1 95863 98526.9 98441.7
          98243.2 97965.3 97622.3 97218.7 96757.4 96252.9 95757.1 95402.6 98070.9 98001.6 97824.5 97562
          97222.9 96807.5 96314.5 95754.8 95183.8 94759.9 97607.5 97546.1 97378.9 97118.7 96768 96320.8
          95769.3 95118.6 94427.9 93894.5 97148.7 97089.8 96922.4 96651.5 96272 95769.9 95127.4 94342
          93479.9 92794.2 96735.8 96675.6 96500.5 96208.4 95786 95208.8 94447 93490.3 92423.4 91574.7
          100134 99762.9 99322.2 98855.9 98382.9 97903.9 97418.4 96937.8 96505 96217.4 102022 100134
          99552 99004.4 98485.3 97981.9 97484.5 96999.6 96567 96281.4 100134 99763 99322.5 98856.4
          98383.7 97905 97419.8 96939.5 96507 96219.6 99552.4 99322.8 98979.3 98586.6 98163.7 97715.6
          97245.9 96769 96330.9 96035.5 99005.7 98857.6 98587.4 98251 97867 97441.7 96979.3 96495
          96037.9 95722.5 98488.5 98386.7 98166.3 97868.8 97509.8 97093.9 96623.7 96113.4 95615.1 95260.5
          97988.4 97911.2 97721.4 97446.5 97096.9 96673.2 96174.2 95610.8 95038.2 94614.7 97496.2 97430.9
          97256.5 96988.8 96631.4 96178.9 95623.2 94969.5 94277 93743 97018.1 96957.3 96786.1 96510.9
          96127.4 95621.7 94975.8 94186.5 93319.9 92630 96592.9 96532 96354.9 96060.6 95635.9 95056.1
          94290.4 93327.1 92249.6 91389.7
        </DataArray>
        <DataArray type="Float32" Name="saturation" NumberOfComponents="1" format="ascii">
          0.391235 0.390333 0.387689 0.383379 0.377506 0.37027 0.362072 0.353649 0.346237 0.341604 0.394551 0.393652
          0.391026 0.38676 0.380969 0.373865 0.365855 0.357674 0.350524 0.346087 0.399988 0.399092 0.396487 0.392278
          0.386597 0.379673 0.371923 0.364074 0.357281 0.353108 0.406452 0.405557 0.40297 0.398816 0.393241 0.386486
          0.37898 0.371442 0.36498 0.361049 0.412997 0.412102 0.409542 0.405449 0.399967 0.393348 0.38603 0.37873
          0.372522 0.368774 0.418943 0.418048 0.415522 0.4115 0.406116 0.399602 0.392411 0.385267 0.379223 0.375596
          0.423794 0.422915 0.420467 0.416545 0.411256 0.404829 0.397712 0.390651 0.384697 0.381135 0.427219 0.426398
          0.424108 0.420329 0.415132 0.408767 0.401683 0.394648 0.388726 0.385192 0.429108 0.428406 0.426335 0.422706
          0.417575 0.411228 0.404146 0.397104 0.391181 0.387649 0.429697 0.429086 0.427126 0.423542 0.418412 0.412047
          0.404947 0.397889 0.391956 0.388421 0.380676 0.379743 0.37702 0.372606 0.366632 0.359319 0.351073 0.342629
          0.335204 0.330558 0.38411 0.383172 0.380446 0.376049 0.370131 0.362927 0.354854 0.346643 0.339477 0.335027
          0.389813 0.388859 0.386103 0.381702 0.375835 0.368762 0.360914 0.353014 0.346196 0.342008 0.396805 0.39581
          0.392979 0.388519 0.382651 0.375661 0.367994 0.360365 0.353858 0.349906 0.404265 0.403196 0.40023 0.395642
          0.389697 0.382707 0.37513 0.367677 0.361389 0.357608 0.411583 0.41039 0.407218 0.402438 0.396338 0.389259
          0.381674 0.374289 0.368119 0.364438 0.418285 0.416907 0.413473 0.40844 0.40213 0.394885 0.387203 0.379794
          0.373654 0.370015 0.42389 0.42229 0.4186 0.41329 0.406718 0.399262 0.391424 0.383929 0.37776 0.374121
          0.427797 0.426063 0.422203 0.416627 0.409778 0.402098 0.394094 0.386496 0.380276 0.376619 0.429448 0.427767
          0.423762 0.417948 0.410894 0.403071 0.394973 0.387317 0.381068 0.377401 0.369702 0.368719 0.365856 0.361233
          0.354998 0.347387 0.338821 0.330048 0.322319 0.317462 0.373301 0.372307 0.369425 0.364801 0.358609 0.351102
          0.342711 0.334178 0.326717 0.322063 0.379313 0.37828 0.375323 0.370645 0.364465 0.357066 0.348893 0.340679
          0.33358 0.329202 0.386895 0.385771 0.382633 0.377785 0.371512 0.364135 0.356112 0.348161 0.341382 0.337253
          0.395444 0.394134 0.390642 0.385446 0.378922 0.371425 0.363421 0.355615 0.349049 0.345097 0.404512 0.402859
          0.398819 0.393081 0.386108 0.378322 0.370187 0.362386 0.355915 0.35206 0.413795 0.411549 0.406711 0.400232
          0.392641 0.384393 0.375986 0.368066 0.361584 0.357758 0.422636 0.4196 0.413839 0.406453 0.398111 0.389275
          0.380494 0.372372 0.365807 0.361964 0.429014 0.425884 0.419489 0.411165 0.401998 0.392574 0.383403 0.375067
          0.368402 0.364524 0.43 0.428994 0.422489 0.413347 0.403553 0.393758 0.384371 0.375924 0.369209 0.365314
          0.358726 0.357673 0.354611 0.349676 0.343028 0.334921 0.325797 0.316446 0.308191 0.30298 0.362482 0.361414
          0.35833 0.353393 0.346795 0.338802 0.329867 0.320768 0.312785 0.307776 0.3687 0.367582 0.364399 0.35939
          0.352797 0.344921 0.336224 0.327467 0.319866 0.315146 0.376669 0.37542 0.371986 0.366742 0.360014 0.352143
          0.343602 0.33513 0.327875 0.323424 0.386001 0.384454 0.380497 0.374758 0.367671 0.359617 0.351072 0.342748
          0.335728 0.331475 0.396643 0.394472 0.389582 0.382974 0.375233 0.366761 0.358018 0.349679 0.342759 0.338619
          0.408751 0.405311 0.398943 0.391044 0.382298 0.373154 0.364022 0.355513 0.348572 0.344466 0.421876 0.416486
          0.408147 0.39853 0.388457 0.378414 0.368744 0.359957 0.352908 0.348781 0.43 0.42611 0.416326 0.40471
          0.393106 0.382064 0.371826 0.362745 0.355567 0.351401 0.43 0.43 0.421696 0.408076 0.395136 0.383407
          0.372841 0.36361 0.356369 0.352185 0.348391 0.347249 0.343935 0.338592 0.331392 0.322603 0.312713 0.302586
          0.293653 0.28801 0.352211 0.351062 0.34774 0.34242 0.335298 0.326654 0.316974 0.307099 0.298413 0.292939
          0.358337 0.357146 0.353749 0.348389 0.341314 0.332834 0.323438 0.313934 0.305635 0.300437 0.366139 0.364831
          0.361206 0.355641 0.348468 0.340042 0.330853 0.321681 0.313762 0.308851 0.375266 0.373696 0.369585 0.363551
          0.356046 0.347473 0.338325 0.329353 0.321715 0.317035 0.385642 0.383541 0.378561 0.371696 0.363553 0.35458
          0.345266 0.336321 0.328831 0.324299 0.39731 0.394201 0.38784 0.379718 0.370595 0.360957 0.351269 0.342184
          0.33471 0.330243 0.410015 0.405221 0.396944 0.387142 0.376727 0.366206 0.355988 0.346642 0.339086 0.334622
          0.422123 0.415338 0.404887 0.393136 0.381278 0.369813 0.359042 0.349415 0.341748 0.33726 0.429513 0.422029
          0.409555 0.396054 0.383116 0.371058 0.359984 0.350218 0.342503 0.338007 0.339765 0.338519 0.334906 0.32908
          0.321214 0.311579 0.300742 0.289682 0.279981 0.273886 0.343484 0.342243 0.338657 0.332899 0.32516 0.315712
          0.305105 0.294271 0.28474 0.278725 0.349082 0.347826 0.344225 0.338505 0.330887 0.321685 0.311423 0.300979
          0.291802 0.286009 0.356069 0.354738 0.350998 0.345166 0.337554 0.328512 0.318548 0.3085 0.299728 0.294218
          0.364135 0.362621 0.358527 0.352366 0.344554 0.335485 0.325672 0.315916 0.307493 0.302251 0.373164 0.371288
          0.366541 0.359744 0.351454 0.342121 0.332261 0.322639 0.31445 0.309411 0.383078 0.380537 0.374741 0.36695
          0.357884 0.348043 0.337935 0.328279 0.320195 0.31528 0.393596 0.38992 0.382628 0.373497 0.363399 0.352859
          0.342352 0.332536 0.324452 0.319593 0.40381 0.398381 0.389226 0.378559 0.367343 0.356068 0.345138 0.335129
          0.326999 0.322158 0.411343 0.403504 0.39255 0.380677 0.368718 0.357018 0.345867 0.335771 0.327632 0.322809
          0.334803 0.333427 0.329434 0.322985 0.314281 0.303678 0.291766 0.279647 0.26907 0.262472 0.338186 0.33683
          0.332901 0.32657 0.318044 0.307667 0.295993 0.284046 0.273517 0.266869 0.342618 0.341275 0.337407 0.331218
          0.322947 0.312915 0.301648 0.290078 0.279835 0.273318 0.347895 0.346533 0.342652 0.33654 0.328455 0.318726
          0.30785 0.296738 0.286915 0.280656 0.354028 0.352575 0.348532 0.342292 0.334192 0.324586 0.314001 0.303299
          0.293901 0.287944 0.360927 0.359262 0.354811 0.348176 0.339814 0.330139 0.319678 0.309255 0.300207 0.294526
          0.368392 0.366336 0.361196 0.353892 0.345024 0.335065 0.324542 0.314246 0.305433 0.299961 0.376061 0.373356
          0.367218 0.358987 0.34941 0.338998 0.328269 0.31797 0.309285 0.303952 0.383033 0.379356 0.371993 0.362718
          0.352377 0.341477 0.3305 0.320142 0.311518 0.306272 0.387114 0.382309 0.373922 0.363922 0.353114 0.341944
          0.330848 0.320481 0.311915 0.306733 0.334746 0.333286 0.329056 0.322212 0.312927 0.301492 0.288503 0.27514
          0.263421 0.25606 0.337636 0.336201 0.332045 0.325327 0.316216 0.30499 0.292197 0.27895 0.26719 0.259688
          0.340555 0.339146 0.335072 0.328507 0.319632 0.308717 0.296294 0.283427 0.271917 0.264496 0.343532 0.342134
          0.33811 0.33167 0.32302 0.312455 0.300523 0.288186 0.277127 0.26995 0.346819 0.345393 0.341335 0.334923
          0.326429 0.316192 0.304717 0.292902 0.282329 0.275494 0.350715 0.349191 0.344953 0.338411 0.329912 0.319812
          0.308621 0.297229 0.287133 0.280657 0.355203 0.353474 0.348848 0.341931 0.333183 0.323017 0.311963 0.300877
          0.291173 0.285015 0.359791 0.357725 0.352511 0.345033 0.335874 0.325498 0.314446 0.303544 0.294131 0.288224
          0.363658 0.361127 0.355207 0.347094 0.337474 0.326838 0.315725 0.304928 0.295723 0.290004 0.365167 0.362204
          0.355766 0.347241 0.337345 0.326571 0.315446 0.304746 0.2957 0.29012 0.339168 0.337667 0.33333 0.326337
          0.316863 0.305175 0.291803 0.277814 0.265158 0.256884 0.341598 0.340118 0.335842 0.32895 0.319614 0.308081
          0.294843 0.28091 0.268177 0.259748 0.343084 0.341629 0.337427 0.330655 0.321483 0.310148 0.297117 0.283354
          0.270701 0.262267 0.343772 0.342338 0.338199 0.331537 0.322528 0.311412 0.298649 0.285174 0.272787 0.264556
          0.344057 0.342626 0.338508 0.331912 0.323036 0.312143 0.299707 0.286677 0.274802 0.266958 0.344404 0.342941
          0.33877 0.332158 0.323355 0.312677 0.300636 0.288146 0.276848 0.269441 0.345207 0.343655 0.339317 0.332577
          0.323762 0.313226 0.301472 0.289419 0.278658 0.271691 0.346439 0.344726 0.340081 0.333047 0.324046 0.313484
          0.301909 0.290223 0.279937 0.273367 0.347315 0.345388 0.340367 0.33298 0.323741 0.313103 0.301639 0.290244
          0.280356 0.274122 0.346777 0.344682 0.339399 0.331781 0.322395 0.311724 0.300363 0.289201 0.279626 0.273652
          0.346748 0.345212 0.340806 0.333761 0.324291 0.312668 0.299368 0.285337 0.27238 0.263642 0.348855 0.347333
          0.342966 0.335988 0.326612 0.315096 0.301894 0.287914 0.274929 0.266111 0.349209 0.34771 0.343405 0.336516
          0.327246 0.315839 0.302727 0.288794 0.275793 0.266924 0.348016 0.346542 0.342299 0.335498 0.326324 0.315011
          0.301981 0.288102 0.275127 0.266266 0.345742 0.344283 0.340081 0.333335 0.324229 0.312994 0.300053 0.286286
          0.273452 0.264726 0.342901 0.341438 0.337231 0.330491 0.321412 0.310245 0.297442 0.283908 0.271429 0.263066
          0.339974 0.33848 0.334208 0.32741 0.31832 0.307231 0.294669 0.281574 0.26969 0.261857 0.337331 0.33577
          0.331367 0.324455 0.315335 0.304357 0.292072 0.279446 0.268185 0.260914 0.335032 0.333375 0.328782 0.321683
          0.312452 0.301501 0.289441 0.277277 0.266642 0.259913 0.332405 0.330669 0.325923 0.318679 0.309366 0.298452
          0.2866 0.274847 0.264762 0.258495 0.356177 0.354579 0.350049 0.342904 0.333427 0.321925 0.308864 0.295116
          0.282361 0.273672 0.358118 0.356522 0.352003 0.344889 0.335464 0.32403 0.311042 0.297351 0.284622 0.27593
          0.357637 0.356066 0.351607 0.34457 0.335222 0.323852 0.310897 0.297196 0.28441 0.275645 0.355026 0.353491
          0.349111 0.342163 0.33289 0.321557 0.30859 0.294816 0.281909 0.273027 0.350802 0.349296 0.34498 0.338098
          0.328864 0.317528 0.304503 0.290625 0.277595 0.26862 0.345482 0.34399 0.339699 0.332831 0.323583 0.312197
          0.299097 0.285146 0.272096 0.263164 0.339566 0.338065 0.333748 0.32683 0.317511 0.306049 0.29291 0.279025
          0.2662 0.257587 0.333522 0.331989 0.327591 0.320568 0.311145 0.299628 0.286567 0.273014 0.260806 0.252853
          0.327771 0.326188 0.321676 0.314526 0.305018 0.293531 0.280716 0.2677 0.256321 0.249163 0.32272 0.321088
          0.316465 0.309187 0.299593 0.288134 0.275573 0.263142 0.252633 0.246251 0.366542 0.364824 0.360044 0.352654
          0.34303 0.33154 0.318673 0.305277 0.29295 0.284609 0.368473 0.366738 0.361933 0.354529 0.344913 0.333451
          0.32063 0.307288 0.295013 0.286712 0.367368 0.365669 0.360941 0.353623 0.344084 0.332677 0.319875 0.306509
          0.294167 0.28579 0.363658 0.362019 0.357413 0.350227 0.34079 0.32943 0.316601 0.303126 0.290609 0.282058
          0.357952 0.356367 0.351877 0.344807 0.335442 0.324079 0.311157 0.297493 0.284723 0.275942 0.350796 0.349249
          0.344832 0.33782 0.328458 0.317017 0.303929 0.29003 0.277006 0.268034 0.342696 0.341161 0.336756 0.32972
          0.320271 0.308673 0.295378 0.281281 0.268151 0.259195 0.334168 0.332616 0.328155 0.321006 0.311382 0.299573
          0.2861 0.271985 0.259113 0.250584 0.325814 0.324221 0.319641 0.312305 0.30245 0.290434 0.276912 0.26311
          0.25103 0.243433 0.318441 0.316792 0.312061 0.304501 0.294407 0.282261 0.268905 0.255755 0.244834 0.238371
          0.377331 0.375398 0.370187 0.36234 0.352354 0.340674 0.327834 0.314685 0.302771 0.294834 0.379421 0.377438
          0.372145 0.364226 0.354194 0.342495 0.329665 0.316552 0.304691 0.296806 0.377778 0.37586 0.370685 0.362889
          0.352961 0.341335 0.328538 0.315411 0.303494 0.295543 0.373091 0.371278 0.366309 0.358727 0.348974 0.337455
          0.324674 0.311465 0.299382 0.291253 0.366138 0.364426 0.35966 0.352291 0.342698 0.331247 0.318416 0.305031
          0.292669 0.284266 0.357538 0.355903 0.351293 0.344074 0.334564 0.323091 0.310111 0.296452 0.283736 0.275015
          0.347826 0.346235 0.341707 0.334538 0.324997 0.313383 0.300153 0.286174 0.273139 0.264198 0.337554 0.33597
          0.331434 0.324195 0.314491 0.302617 0.28908 0.27485 0.261751 0.252931 0.327428 0.325817 0.321182 0.313753
          0.30376 0.291541 0.277725 0.26349 0.250848 0.242741 0.318514 0.316846 0.312046 0.304338 0.293977 0.281396
          0.267429 0.25356 0.24198 0.235125 0.38831 0.386018 0.380138 0.371575 0.360967 0.348847 0.335803 0.322705
          0.311055 0.303434 0.390778 0.388365 0.38231 0.373589 0.362861 0.350663 0.337583 0.324488 0.312872 0.305296
          0.38854 0.38626 0.380407 0.37188 0.361312 0.349229 0.336215 0.323134 0.311487 0.303862 0.382808 0.380721
          0.375205 0.367023 0.356748 0.344875 0.331964 0.318868 0.307105 0.299332 0.374626 0.372717 0.367537 0.359711
          0.349736 0.338054 0.325195 0.311999 0.300001 0.291971 0.364719 0.36295 0.35805 0.350515 0.340759 0.329175