<?xml version="1.0"?>
<VTKFile type="UnstructuredGrid" version="0.1" byte_order="LittleEndian">
  <UnstructuredGrid>
    <Piece NumberOfCells="1710" NumberOfPoints="2200">
      <CellData Scalars="p (Pa)">
        <DataArray type="Float32" Name="p (Pa)" NumberOfComponents="1" format="ascii">
          99889.1 99841 99732 99584.1 99410.5 99220.8 99024.4 98836.8 98681.4 98588.9 99772.5 99732.5
          99634.8 99497.3 99331.8 99147.4 98953.9 98767.6 98612.2 98519.4 99620.1 99586.6 99499.4 99372
          99214.5 99035.1 98844.3 98658.4 98501.8 98407.8 99446.2 99417.2 99338.1 99218.9 99067.3 98891.2
          98701 98513.1 98353 98255.9 99260.9 99234.6 99161.1 99047 98898.7 98723.2 98530.5 98337
          98169.8 98067.2 99074.1 99049.4 98978.8 98867.3 98719.6 98541.7 98342.6 98139.1 97960.4 97849.1
          98900.2 98876.3 98807.1 98695.9 98546.4 98362.9 98154 97936.6 97742 97619 98760.8 98737.2
          98668.1 98556 98403 98212.6 97992.5 97759.6 97547.5 97411.3 98682.4 98658.8 98589.5 98476.2
          98320.5 98125.1 97896.9 97652.7 97427.8 97281.7 99805.8 99719.9 99566 99381 99179.7 98969.3
          98757.6 98558.4 98394.5 98297.2 99626.8 99566.5 99440.4 99277.1 99090.6 98889.2 98682.6 98485.7
          98322.1 98224.4 99427.7 99383.8 99279.5 99134.9 98962 98769.2 98567.1 98371.3 98206.6 98107.5
          99221.7 99187.4 99098 98967.1 98804.1 98617.3 98417 98219.3 98050.7 97948.2 99014.7 98985.6
          98905.5 98783.1 98626.1 98441.3 98238.7 98034.9 97858.3 97749.6 98813.2 98786.8 98711.8 98594
          98438.7 98251.8 98042.2 97827.3 97637.6 97519 98630 98604.8 98532 98415.4 98258.3 98065.3
          97844.8 97614 97406.3 97274.3 98485.1 98460.3 98387.9 98270.2 98109.4 97908.7 97675.3 97426.9
          97199.2 97052 98404.3 98379.6 98307 98188.1 98024.2 97817.7 97575.1 97313.8 97071.4 96912.7
          99882.3 99711.8 99472.3 99218.6 98966 98716.7 98476 98254.3 98073 97965.4 99579.1 99472.9
          99292.7 99082.2 98857.2 98624.3 98392.6 98174.6 97994.1 97886.1 99288.3 99222.2 99085.3 98909
          98707.2 98489.8 98265.8 98050 97868.4 97758.7 99021.5 98976.2 98867.2 98714.2 98530.1 98323
          98102.5 97884.9 97698.6 97584.6 98774.3 98739.1 98646.3 98508.8 98334.9 98131.9 97909.3 97684.5
          97488.2 97366.4 98546.1 98516.1 98432.5 98302.7 98132.4 97927.2 97696.4 97457.9 97245.4 97111.2
          98346.1 98318.3 98238.5 98110.8 97938.6 97726.3 97481.9 97223.8 96989 96838 98191.3 98164.2
          98085.1 97956.4 97779.7 97557.7 97297.5 97017.4 96757.6 96587.7 98107.1 98080 98000.7 97870.4
          97689.8 97460.5 97188.7 96892.6 96614.3 96430 100013 99721.6 99370.6 99037.8 98728.9 98438.4
          98164 97912.5 97706.1 97582.6 99550.7 99371.6 99126.9 98865.1 98598.5 98332.3 98069.9 97823
          97617.3 97493.2 99139.6 99043.2 98869.8 98659.4 98427.6 98181.5 97928.7 97684.1 97476.5 97349.8
          98803.1 98744.7 98614.1 98438.2 98229.9 97996.7 97747.7 97500.2 97285.9 97153.2 98513.8 98472.5
          98366.2 98210.8 98015.2 97786.5 97534.1 97276.5 97048.7 96905.4 98260.4 98226.3 98132 97986
          97794.3 97562.1 97298.4 97022.6 96773.2 96613.6 98044 98012.7 97922.9 97779.1 97584.4 97342.1
          97060.3 96758.7 96480.1 96298.4 97880.3 97849.8 97760.5 97614.8 97413.5 97158.2 96855.4 96525
          96213.9 96007.3 97794.3 97763.8 97674 97526 97319.3 97054.3 96736.2 96384.8 96049.3 95823.8
          99561.6 99339.2 99040.8 98727 98413.8 98104.4 97801.5 97516.7 97278 97132.7 99177.2 99042.5
          98818.3 98557.7 98278.9 97989.7 97696.8 97415.3 97176.1 97029.2 98820.2 98736.3 98565.7 98347.3
          98097.8 97825.8 97540.4 97258.8 97015.2 96863.8 98497.6 98440.5 98304.8 98115.8 97886.3 97624.4
          97339.8 97051.6 96797.2 96636.9 98205.9 98162.1 98047 97875.3 97655.8 97395.2 97102.8 96799
          96525.2 96349.7 97945 97907.4 97802.3 97637.9 97419.2 97150.7 96841 96511.5 96208 96010.1
          97723.2 97687.9 97585.9 97421.2 97195.9 96912.1 96576.9 96212.3 95869.7 95642.5 97559.3 97524.2
          97421.6 97252.8 97017.3 96715 96351.4 95948.5 95563.1 95303.6 97478.8 97443.6 97339.7 97167.4
          96924.3 96608.8 96224.8 95794.1 95377.1 95093.2 99009 98862.4 98619.4 98335.3 98028.4 97705.7
          97374.1 97050.1 96769.6 96594.3 98721.9 98623 98426.7 98177.6 97894 97584.6 97258.6 96934.5
          96650.8 96472.2 98423 98353 98192.5 97972.9 97709.4 97410.7 97086.8 96757.7 96465 96278.8
          98130.9 98077.4 97940.9 97741.8 97491.2 97196.2 96866.7 96524.3 96214.3 96014.3 97855.2 97810.3
          97687.8 97499.7 97252.8 96952.4 96607.4 96240.7 95902.3 95680.8 97605.7 97564.7 97448.1 97262.2
          97010.1 96694.5 96323.2 95919.9 95540.8 95289 97397.6 97357.5 97241.1 97050.8 96786.4 96447.8
          96040.9 95590.5 95160.1 94870.5 97252.2 97211.8 97092.9 96895.1 96615.9 96252.2 95807.7 95307.8
          94823.7 94494.6 97192.3 97151.4 97030.5 96828.4 96539.7 96159.3 95689.5 95155 94632.1 94273.7
          98447.7 98348.2 98146.5 97885 97580.2 97239.4 96871.1 96495.6 96158.5 95941.2 98230 98153.8
          97978.9 97738.2 97446.4 97111.5 96743.1 96362.8 96018.6 95795.6 97980.6 97919.8 97766.7 97543.8
          97262.7 96930.4 96556.6 96164.2 95804.6 95569.6 97725 97673.5 97534.9 97323.3 97046.5 96709.5
          96321.3 95906.2 95520.1 95265 97481.6 97434.9 97303.6 97095.7 96814.9 96463.7 96049.8 95598.8
          95172.9 94888.2 97268.3 97223.2 97093.2 96881.7 96588.8 96213.6 95762.4 95261.9 94782.5 94459.1
          97104.5 97059.1 96926.3 96706.5 96395.8 95990.2 95493.4 94933.6 94391.5 94023.2 97012.7 96965.9
          96828.1 96598 96269.4 95835.1 95294.6 94677.2 94073.5 93661.7 97003.8 96956.4 96816.2 96580.3
          96241.5 95790.3 95224.5 94571.1 93925.4 93481.6 97893.9 97819.4 97642.4 97391 97076.7 96705
          96284.1 95837.4 95421.9 95146 97721.2 97657.2 97493.7 97251.9 96941.9 96568.8 96141.4 95684.4
          95257.6 94973.6 97515.8 97459.4 97307.2 97073.6 96765.4 96386.3 95945 95467.3 95017.5 94716.5
          97307.4 97255.6 97110.3 96880 96567.8 96175.2 95709.5 95197.9 94711.1 94383.1 97121.9 97072.1
          96928.9 96696.1 96373.1 95958 95456.2 94896.6 94357.9 93992.8 96983 96933.3 96788.3 96548.2
          96209 95764.4 95217.2 94597.7 93995.3 93584.8 96915 96864.3 96714.9 96464.4 96105.8 95629.9
          95035.6 94353.3 93682.6 93223.7 96919.5 96868.2 96716.6 96460.6 96089.5 95589.8 94957.5 94221.8
          93491.7 92989.4 96977.7 96927 96776.6 96522 96151.5 95649.2 95005.3 94244.8 93478.2 92942.4
          97359 97295.7 97127.9 96871.2 96531.4 96109.8 95613 95068 94547.4 94194.2 97216 97156.5
          96993.2 96737.8 96394.5 95964.3 95454.4 94893.9 94359.1 93997.4 97058.8 97002.4 96843.3 96588.6
          96239.6 95795.8 95263.8 94674.3 94109.6 93727.7 96921.6 96867.1 96709.9 96453.4 96095.1 95631.5
          95067 94434.1 93823.2 93409.1 96834.8 96781 96623.8 96363 95992.7 95505.3 94901.3 94213.6
          93543.1 93086.1 96826 96772.2 96613.7 96347.6 95964.3 95453 94810.1 94066.6 93331.3 92825.1
          96887.5 96834.2 96676.7 96410.8 96024.8 95502.8 94835 94046.9 93252.6 92696.9 96990.9 96938.7
          96784.4 96523.5 96143.8 95627.7 94961.8 94163.7 93339.3 92746.1 97106.7 97056 96906.1 96653.1
          96285.3 95785.1 95137.2 94353.9 93531.2 92925.5 96871.6 96810.5 96638.2 96360.7 95976.6 95481.9
          94881.5 94208.8 93559.5 93118.4 96751 96690.3 96516.6 96233.9 95839.5 95329.6 94710.2 94019
          93357.3 92912.8 96659.8 96600 96426.5 96140.7 95737.4 95210.4 94564.5 93839.6 93145.2 92680.7
          96632.7 96574.1 96402.2 96115.6 95705.9 95163.3 94487.5 93718 92973 92471.9 96697.3 96640
          96471 96186.7 95775.5 95223.2 94524.8 93713 92910.1 92360.2 96833.9 96778.6 96615.5 96340
          95939.8 95397.3 94700.1 93869.9 93022 92421.7 97006.8 96953.9 96797.8 96534.5 96152.2 95633.1
          94961.6 94150.7 93300 92674.6 97182.8 97132.1 96982.6 96731.5 96368.4 95876.8 95241.1 94468.7
          93645.6 93024.7 97336.8 97287.8 97143.9 96903.3 96557.2 96090.8 95489.4 94758.1 93972.9 93372.1
          96485.4 96421.4 96234.9 95924.6 95481 94893.8 94166.4 93345.9 92563.5 92046.5 96387.1 96321.7
          96130.2 95810.4 95351.8 94744.2 93994.3 93156.6 92371.2 91862.6 96390.7 96325.9 96135.5 95815.5
          95353.9 94737.7 93969.7 93102.7 92284.1 91753 96514.5 96452.4 96269.1 95959.5 95509.4 94901.5
          94131.5 93240.4 92371.9 91791 96723.5 96665.3 96493.4 96202.9 95780 95205.3 94465.3 93583.4
          92683.4 92048.3 96970.5 96916.2 96756.1 96486.5 96095.5 95565 94878.5 94046.9 93169 92517.5
          97216.9 97165.7 97015.5 96764.3 96402.6 95915.1 95286.1 94521.4 93701 93074.4 97436.8 97387.8
          97244.9 97007.7 96669.3 96217.2 95638.3 94937 94182.6 93600.2 97613.3 97565.7 97427.5 97200.1
          96878.5 96452.5 95911.4 95260.2 94562 94022.6 96272 96203 95999.3 95654 95151.2 94472.5
          93619.1 92655.7 91758.4 91191 96201.3 96130.5 95921 95565 95046 94345.8 93470.2 92494.8
          91605.2 91056.2 96312.3 96244.4 96043.3 95701.3 95200.7 94520.4 93658.1 92674.9 91748.8 91157.7
          96557 96494.5 96309.6 95996.2 95538.1 94913.5 94109.2 93157.6 92203.3 91545.9 96863.1 96806.1
          96638.3 96355.4 95944.7 95386.7 94664.2 93790.1 92870.6 92191.8 97176.1 97123.5 96969.5 96712.3
          96342.7 95845.2 95204.1 94424.6 93587.2 92945.2 97464 97414.4 97270 97031.5 96693.2 96243.4
          95670.1 94977.7 94233.3 93656.9 97709.3 97661.2 97522.6 97296.4 96979.7 96564.2 96041.7 95417.9
          94753.4 94241.8 97901 97853.4 97717.4 97498.3 97195.2 96802.5 96314.6 95739 95132.8 94670.8
          96243 96172.4 95962.8 95603.8 95072.9 94342.3 93404.4 92329.7 91328.8 90705.5 96196.7 96124.7
          95910.7 95544.1 95001.6 94255.8 93302.5 92220.2 91228.8 90622.8 96378.8 96311.4 96111.6 95770.9
          95269.2 94580.6 93692.3 92652.1 91639.2 90971.1 96694.5 96633.7 96454.2 96150.8 95708.1 95103.9
          94320.3 93375.9 92395.4 91686.5 97053.1 96998 96836.5 96566.4 96177.4 95652.5 94974.9 94150.8
          93267 92591.9 97401.2 97349.9 97201.1 96955.6 96607.4 96144.9 95555.4 94843.4 94077.2 93482.9
          97713.1 97663.8 97522.3 97292.6 96972.4 96554.3 96030.5 95407.5 94745.3 94236 97976.6 97927.6
          97789 97567.8 97264.8 96876.1 96397.7 95838.5 95254.6 94813.1 98183.2 98133.1 97994.2 97776.2
          97482.4 97111.4 96661.8 96144.5 95613.2 95218.1 96317.9 96248.9 96043.6 95691.4 95167.9 94440.5
          93489.4 92364.8 91272 90562.9 96289.6 96219.6 96011.6 95654.8 95124.4 94388 93427.7 92298.6
          91212 90514.4 96509.9 96445 96252.8 95925.8 95444.4 94781.5 93916 92875.2 91813.9 91072.1
          96860.9 96802.2 96630 96340.5 95920.7 95350.1 94609 93705.7 92741.6 92014.4 97246 97192.3
          97035.9 96777.1 96408.7 95916.6 95286.2 94521.4 93695.5 93054 97614.8 97563.7 97417 97178.8
          96846.4 96411.6 95865.5 95214 94518.8 93981.7 97945.4 97894.6 97751.9 97524.8 97214.8 96818.1
          96330.7 95761.9 95168.1 94718.9 98227.9 98175.5 98031.8 97808.4 97510.1 97136.4 96687.1 96174
          95650.6 95263.8 98454.2 98398.6 98250.2 98025.1 97730.8 97369.2 96942.4 96463.9 95985.1 95638.2
          96419.4 96353 96155.7 95817.9 95315.9 94615.5 93687.1 92556.3 91401 90604.7 96402.5 96335.6
          96136.8 95796.4 95290.6 94585.2 93651.6 92517.6 91364.7 90574.8 96642.1 96579.8 96395.9 96084.2
          95627.1 94997.9 94170.9 93156.4 92081 91288 97011.4 96954.3 96787.6 96509.8 96110.2 95570.6
          94871.6 94015.3 93086.7 92366.7 97413.5 97359.8 97205.6 96953.7 96599.6 96132.3 95539.8 94825.7
          94056.1 93456 97800 97747.3 97598.9 97362.2 97037.9 96620.8 96105.1 95498.7 94860.1 94372
          98151.3 98096.9 97948 97717 97408.8 97022.7 96557.8 96025.5 95480.5 95075.7 98458.8 98400
          98244.9 98011.8 97709.1 97339.5 96905.2 96420.3 95936.6 95586.9 98714.2 98648.1 98482.4 98241.5
          97936.9 97573.3 97155.2 96697.9 96251.3 95935 96495.6 96431.5 96241.5 95916.9 95435.7 94763.4
          93864.7 92745.8 91555.2 90689.6 96485.6 96421.2 96230.2 95904.2 95420.9 94745.9 93844.2 92723.1
          91533 90670.5 96736.9 96676.3 96498.2 96198.1 95760.2 95158.8 94366.2 93381.9 92310.8 91490
          97119.7 97063 96898.9 96627.9 96241.7 95724 95056.3 94238.3 93344.5 92641.3 97538.2 97483.3
          97327.6 97077.1 96729.9 96277.5 95710 95031.7 94304.7 93739.3 97945.7 97889.6 97735.1 97494.2
          97170.4 96761 96262.7 95684.9 95084.5 94631.2 98324.2 98263.3 98102.9 97861.5 97547.3 97162
          96707 96195.3 95680.4 95304.2 98666.3 98596.5 98423.2 98172.7 97857.2 97481.8 97050.4 96578.6
          96117.1 95789.4 98964.2 98880.3 98687.7 98421.4 98097 97721.2 97299.9 96849.4 96418.4 96118.7
          96516.2 96453.4 96267.6 95951.4 95483.7 94830.3 93952.6 92844.5 91633.1 90719.3 96510 96447
          96260.7 95943.7 95474.8 94819.8 93940.4 92830.7 91619.2 90706.8 96771.2 96711.2 96535.7 96241.6
          95814.7 95230.2 94459.2 93495.4 92430.2 91594.4 97168.2 97110.8 96945.9 96676.4 96296 95789.8
          95140.1 94345.2 93474.5 92784.6 97606.3 97548.6 97388 97133.9 96786.8 96339.9 95784.7 95126.2
          94424.8 93881.6 98040.5 97978.7 97814.1 97563.7 97233.8 96823.7 96331.4 95767.6 95188.2 94755.3
          98454.8 98383.7 98206.3 97948.4 97621.5 97229 96773.7 96269.5 95769.3 95408.5 98843.9 98756.6
          98557.1 98281.7 97946 97556.6 97118.7 96648.2 96195.2 95877.9 99202.1 99088.8 98857.8 98556.2
          98203.1 97806.3 97372.2 96917.4 96489.7 96196.5 96460.8 96398.2 96213.7 95900.3 95437.5 94791.1
          93920 92811.3 91581.5 90635.3 96456.6 96394 96209.1 95895.2 95431.7 94784.3 93912 92802.3
          91572.3 90626.8 96727.2 96666.8 96491 96197.9 95774.2 95195.2 94431.5 93473.1 92405.2 91557
          97139.7 97080.5 96912.4 96640.4 96259.4 95755.5 95111.1 94323.8 93460.4 92774.3 97600.1 97538.4
          97370.5 97109.2 96757 96308.3 95755 95102.6 94410.6 93876.4 98065.7 97996.1 97818.3 97554.8
          97214.4 96797.6 96303 95741.8 95169.6 94744.9 98523.6 98438.2 98239 97960.3 97616.3 97211.5
          96748.9 96243 95746.2 95391 98973.6 98859.9 98626.3 98319.8 97958.9 97550.4 97099.8 96622.8
          96169.2 95854.5 99414.9 99254.4 98971.9 98625.8 98237.1 97813.5 97360.8 96894.7 96462.5 96169.1
          96312 96249.2 96063.9 95749.4 95285.4 94636.6 93760.5 92641.5 91394.1 90429.5 96308.8 96245.9
          96060.4 95745.6 95280.9 94631.5 93754.6 92634.8 91387.1 90423 96586.4 96525.2 96347.7 96052.6
          95626.9 95045.8 94278.6 93314 92235.8 91376.2 97011.3 96950.2 96778.4 96502.4 96117.7 95610.6
          94963.3 94172.7 93305 92614.8 97490.6 97425.1 97250.1 96981.6 96623 96169.2 95612.2 94957.2
          94263.6 93729.1 97984.6 97907.1 97716.7 97441.1 97090.5 96665.7 96165.4 95600.8 95027.3 94603.1
          98486.2 98384.2 98163.3 97865.1 97505.2 97088.3 96617.1 96105.8 95606.6 95251.4 99004.6 98856.2
          98585.7 98248.7 97864 97437.9 96974.7 96489.6 96031.7 95715.9 99551.9 99322.2 98978.4 98585.4
          98162 97713.4 97243.1 96765.6 96326.9 96031.1
        </DataArray>
        <DataArray type="Float32" Name="saturation" NumberOfComponents="1" format="ascii">
          0.429078 0.428366 0.426275 0.42262 0.417461 0.411085 0.403977 0.396916 0.390982 0.387446 0.427121 0.426285
          0.423962 0.420137 0.41489 0.408474 0.401344 0.394278 0.388336 0.384793 0.423583 0.422687 0.420199 0.41622
          0.410866 0.404372 0.397201 0.390101 0.384125 0.380555 0.418584 0.417672 0.415103 0.411019 0.405561 0.398979
          0.391733 0.384553 0.378491 0.374857 0.412481 0.41157 0.408968 0.404811 0.399263 0.392583 0.385218 0.377889
          0.371668 0.367918 0.405808 0.4049 0.402277 0.398073 0.392445 0.385642 0.3781 0.370543 0.364076 0.360146
          0.399319 0.398414 0.395784 0.391539 0.385821 0.378863 0.371089 0.363229 0.356435 0.352266 0.39402 0.393116
          0.390475 0.386188 0.380375 0.37325 0.365225 0.357038 0.349888 0.345454 0.391021 0.390117 0.387468 0.383151
          0.37727 0.370027 0.361823 0.353396 0.345984 0.341351 0.427756 0.426007 0.42212 0.416512 0.409632 0.401923
          0.393895 0.386282 0.380055 0.376396 0.423756 0.422135 0.418402 0.41304 0.406414 0.398904 0.391029 0.38351
          0.377329 0.373687 0.418003 0.416603 0.413121 0.408025 0.401648 0.39434 0.386613 0.379178 0.373027 0.369386
          0.411118 0.409905 0.406685 0.401839 0.39567 0.388531 0.380904 0.373497 0.367321 0.363643 0.403616 0.40253
          0.399519 0.394871 0.388866 0.381826 0.374218 0.366751 0.360467 0.356693 0.396019 0.39501 0.392146 0.387641
          0.381729 0.374703 0.367016 0.359384 0.352888 0.348948 0.389017 0.388053 0.385275 0.380844 0.374947 0.367851
          0.359994 0.352097 0.345293 0.341119 0.383487 0.382545 0.379805 0.375392 0.369456 0.362239 0.354162 0.345955
          0.3388 0.33436 0.380427 0.379493 0.376765 0.372345 0.366366 0.359048 0.3508 0.342357 0.334935 0.330292
          0.428986 0.425826 0.419384 0.41101 0.401797 0.392335 0.383144 0.374798 0.368131 0.364256 0.422482 0.419404
          0.413572 0.406108 0.397692 0.388797 0.379982 0.371845 0.365281 0.361444 0.413423 0.411135 0.406221 0.399653
          0.391971 0.383668 0.375226 0.367297 0.360822 0.357008 0.403868 0.402181 0.39807 0.39224 0.3852 0.377363
          0.369203 0.361402 0.354951 0.351117 0.394533 0.393191 0.38964 0.384389 0.377812 0.370278 0.362263 0.354472
          0.34794 0.344018 0.38581 0.384669 0.381493 0.376603 0.370294 0.362897 0.354878 0.346956 0.340221 0.336128
          0.37823 0.377188 0.374208 0.369504 0.363303 0.355897 0.347737 0.339556 0.332503 0.328163 0.372463 0.371464
          0.368571 0.363933 0.357731 0.350222 0.341843 0.333337 0.325911 0.321285 0.369369 0.368385 0.365519 0.360891
          0.354652 0.347041 0.338479 0.329715 0.321998 0.317151 0.43 0.426045 0.416174 0.404472 0.392798 0.381715
          0.371458 0.362375 0.355206 0.351051 0.42169 0.416204 0.407737 0.39799 0.387814 0.377715 0.368017 0.359234
          0.352207 0.348104 0.408194 0.40467 0.398171 0.390142 0.381305 0.372101 0.362949 0.354458 0.347559 0.343492
          0.395631 0.393402 0.388408 0.38171 0.373891 0.365375 0.356631 0.348334 0.341481 0.337397 0.384581 0.383008
          0.378989 0.373182 0.366041 0.357967 0.349446 0.34119 0.334262 0.330082 0.375024 0.373757 0.370281 0.364993
          0.358236 0.350369 0.341873 0.333489 0.326343 0.321977 0.36708 0.365952 0.362745 0.357712 0.351108 0.34325
          0.334607 0.32594 0.318448 0.313813 0.36124 0.360168 0.357072 0.352124 0.345523 0.337547 0.328655 0.319625
          0.311725 0.306782 0.358236 0.357182 0.354117 0.349178 0.342529 0.334427 0.325318 0.315993 0.307768 0.302583
          0.421998 0.415139 0.404583 0.392726 0.380786 0.369272 0.358486 0.348873 0.341237 0.336776 0.409544 0.404647
          0.396213 0.386254 0.375715 0.365124 0.354892 0.345582 0.338092 0.333684 0.396284 0.393081 0.38656 0.378276
          0.369031 0.359331 0.349651 0.340639 0.333272 0.328894 0.383963 0.381794 0.376683 0.369687 0.36145 0.352445
          0.343176 0.334349 0.327014 0.322605 0.373 0.371387 0.367187 0.361063 0.353503 0.344936 0.335875 0.327065
          0.319628 0.315104 0.363528 0.362194 0.358515 0.352897 0.345705 0.337319 0.328247 0.319268 0.311579 0.306848
          0.355792 0.354587 0.351159 0.345772 0.338698 0.330273 0.320998 0.311686 0.303616 0.298599 0.350277 0.349121
          0.345785 0.340452 0.333334 0.324733 0.315145 0.305416 0.296907 0.291573 0.347635 0.346492 0.343173 0.337826
          0.330626 0.32185 0.311992 0.301918 0.293054 0.287467 0.403402 0.39789 0.388612 0.377824 0.366516 0.355194
          0.344265 0.334303 0.326244 0.321462 0.392533 0.388748 0.381273 0.371958 0.361721 0.351117 0.340632 0.330919
          0.322981 0.318242 0.381133 0.378489 0.372505 0.364523 0.355321 0.345435 0.335394 0.325911 0.318057 0.313326
          0.370243 0.368288 0.363384 0.356429 0.348038 0.338707 0.328976 0.319605 0.311734 0.306946 0.360358 0.358791
          0.354585 0.348315 0.340451 0.331436 0.321813 0.312383 0.304357 0.299427 0.35182 0.350455 0.346638 0.340742
          0.333122 0.324171 0.314436 0.304758 0.296435 0.291282 0.345014 0.343737 0.34009 0.334324 0.326712 0.31761
          0.30757 0.297487 0.288753 0.283318 0.340432 0.339184 0.335577 0.329787 0.322039 0.312666 0.302222 0.291658
          0.28247 0.276739 0.338588 0.337341 0.333723 0.32789 0.32001 0.310396 0.299617 0.288655 0.279087 0.273106
          0.382068 0.378309 0.370811 0.361405 0.35097 0.340037 0.329101 0.318853 0.310376 0.305249 0.373896 0.37108
          0.36474 0.356304 0.346584 0.336137 0.325507 0.315434 0.307046 0.301952 0.364797 0.362635 0.357284 0.349765
          0.34076 0.330801 0.320458 0.310515 0.302154 0.297044 0.355852 0.354101 0.349472 0.342656 0.334197 0.324582
          0.314389 0.304446 0.296001 0.290806 0.347726 0.346214 0.342037 0.335663 0.32751 0.318021 0.30778 0.297664
          0.289 0.283641 0.340932 0.339537 0.335587 0.329404 0.321313 0.311718 0.301215 0.290744 0.281732 0.276145
          0.335926 0.334571 0.330683 0.3245 0.316275 0.306382 0.295443 0.284474 0.275023 0.269174 0.333197 0.331829
          0.327881 0.321561 0.313093 0.302835 0.291394 0.279871 0.269948 0.263828 0.332937 0.331554 0.327547 0.321087
          0.312403 0.301834 0.290008 0.278038 0.26769 0.2613 0.361717 0.35911 0.353051 0.344802 0.335095 0.32446
          0.313458 0.302886 0.293967 0.288481 0.355724 0.353549 0.348119 0.340424 0.331133 0.320782 0.309962 0.299505
          0.290659 0.285214 0.348842 0.347004 0.342149 0.335001 0.326125 0.316033 0.305335 0.294902 0.286033 0.280561
          0.342155 0.340539 0.336102 0.329354 0.320756 0.310781 0.300052 0.289488 0.280465 0.274886 0.336449 0.334958
          0.330758 0.324215 0.315695 0.305636 0.294673 0.283794 0.274472 0.26871 0.332327 0.330885 0.326764 0.320237
          0.311605 0.301259 0.289865 0.278494 0.268747 0.262739 0.330358 0.328908 0.32473 0.318041 0.30911 0.298328
          0.286375 0.274396 0.264128 0.257826 0.330485 0.329019 0.324777 0.317941 0.308721 0.297473 0.284916 0.272274
          0.261441 0.254807 0.332173 0.330702 0.326437 0.319544 0.310208 0.298744 0.285805 0.272642 0.261255 0.254218
          0.343785 0.341789 0.336629 0.329104 0.319791 0.309204 0.297966 0.286988 0.277633 0.271836 0.339316 0.337496
          0.332625 0.325362 0.31624 0.305781 0.294636 0.283745 0.274491 0.26878 0.334562 0.332897 0.32831 0.321309
          0.312357 0.301957 0.290782 0.27982 0.270507 0.264776 0.330546 0.328985 0.324594 0.317754 0.308853 0.298363
          0.286969 0.275727 0.266171 0.260307 0.328071 0.326561 0.322253 0.31544 0.306441 0.295692 0.283879 0.272144
          0.262154 0.256038 0.327823 0.326317 0.321982 0.315049 0.305782 0.294607 0.282226 0.26984 0.259256 0.252765
          0.329568 0.328055 0.323686 0.316658 0.307191 0.29564 0.282674 0.269538 0.258207 0.251212 0.332558 0.331041
          0.326655 0.319584 0.310021 0.298282 0.284995 0.271355 0.259363 0.251805 0.335991 0.334477 0.330102 0.323045
          0.313488 0.301718 0.288311 0.274405 0.261988 0.254006 0.329113 0.327387 0.32264 0.315382 0.306066 0.295205
          0.283517 0.272068 0.262384 0.256454 0.325727 0.324056 0.319402 0.312215 0.302935 0.292094 0.280449 0.269109
          0.259606 0.253848 0.323225 0.321613 0.317062 0.309946 0.300663 0.289731 0.277924 0.266412 0.256801 0.251019
          0.322493 0.320921 0.316438 0.309343 0.299975 0.288815 0.27662 0.264636 0.254601 0.24857 0.324247 0.322689
          0.318213 0.31106 0.301505 0.289982 0.27725 0.264565 0.253815 0.247295 0.328044 0.326495 0.322029 0.31486
          0.305217 0.293465 0.280272 0.266861 0.25522 0.247994 0.333026 0.331482 0.32703 0.319873 0.310223 0.298397
          0.284992 0.27115 0.258837 0.250946 0.338298 0.336756 0.332316 0.325188 0.315577 0.303777 0.290335 0.276306
          0.263599 0.255254 0.34308 0.34154 0.337113 0.33002 0.320473 0.30875 0.29536 0.281296 0.268408 0.259805
          0.318587 0.31693 0.312241 0.304868 0.295186 0.283742 0.271397 0.259451 0.249633 0.243841 0.316053 0.314397
          0.309694 0.302282 0.29254 0.281049 0.268732 0.256948 0.247419 0.241897 0.316143 0.314505 0.309822 0.302396
          0.292583 0.280935 0.268358 0.256251 0.246441 0.240767 0.319346 0.317729 0.313086 0.30567 0.295777 0.283884
          0.270849 0.258046 0.247428 0.241157 0.324966 0.323374 0.318795 0.311455 0.301604 0.289631 0.276248 0.262719
          0.251052 0.24386 0.331963 0.33039 0.325867 0.318615 0.308864 0.296947 0.283464 0.269537 0.257109 0.249098
          0.339342 0.337777 0.333282 0.326095 0.316449 0.304648 0.291226 0.277191 0.264392 0.255888 0.346272 0.344701
          0.340206 0.333052 0.323485 0.311805 0.298509 0.284536 0.271653 0.262957 0.352073 0.350488 0.345975 0.338827
          0.329311 0.317731 0.304565 0.290711 0.277881 0.269164 0.313157 0.311459 0.306594 0.298848 0.288581 0.276368
          0.263224 0.250721 0.240822 0.235267 0.311416 0.3097 0.304784 0.296947 0.28657 0.274273 0.261144 0.248834
          0.239273 0.234018 0.314162 0.312473 0.307625 0.299874 0.289542 0.277175 0.263777 0.25095 0.240724 0.234956
          0.320468 0.318823 0.314095 0.306523 0.296379 0.284104 0.270502 0.256961 0.245545 0.238684 0.328872 0.327264
          0.322642 0.315248 0.305329 0.293248 0.279645 0.265685 0.253325 0.245419 0.338093 0.336499 0.331934 0.324659
          0.314927 0.303062 0.289608 0.27557 0.262772 0.254252 0.347154 0.345551 0.340985 0.333754 0.324135 0.312449
          0.299195 0.285291 0.272457 0.263761 0.355317 0.353685 0.349067 0.341811 0.332231 0.320661 0.307588 0.293886
          0.281213 0.272593 0.36197 0.360294 0.355594 0.348272 0.338677 0.327163 0.314219 0.300699 0.288225 0.27976
          0.312439 0.310713 0.305746 0.297771 0.28708 0.274216 0.260243 0.246951 0.236571 0.230883 0.311303 0.309561
          0.304548 0.296505 0.285736 0.272818 0.25887 0.245731 0.235622 0.230167 0.315841 0.31414 0.309248 0.301404
          0.29089 0.2782 0.264267 0.250678 0.239613 0.233241 0.324171 0.322519 0.317777 0.310189 0.300021 0.287671
          0.273858 0.259857 0.247694 0.24009 0.334391 0.332766 0.328117 0.320717 0.310834 0.298815 0.285239 0.271152
          0.258397 0.249966 0.345128 0.343496 0.338856 0.331529 0.321813 0.310046 0.296744 0.282826 0.270004 0.261318
          0.355445 0.353771 0.349057 0.341691 0.332018 0.320396 0.307326 0.293673 0.28107 0.272501 0.364656 0.36291
          0.358055 0.35056 0.340826 0.329244 0.316322 0.302912 0.290601 0.28228 0.372161 0.370323 0.365286 0.357611
          0.347753 0.336134 0.323279 0.310038 0.297971 0.289882 0.314303 0.312585 0.307633 0.299657 0.288903 0.275834
          0.261408 0.247347 0.236031 0.229654 0.313594 0.311865 0.306883 0.298865 0.288064 0.274966 0.26056 0.246603
          0.235463 0.229242 0.319227 0.317538 0.312682 0.304894 0.29443 0.281713 0.267549 0.253382 0.241393 0.234164
          0.328809 0.327154 0.322419 0.314871 0.304778 0.292507 0.278688 0.264459 0.25175 0.243497 0.340243 0.338587
          0.333882 0.326453 0.316603 0.304683 0.291228 0.277191 0.264313 0.255626 0.352125 0.350422 0.345636 0.338175
          0.328398 0.316678 0.303521 0.289802 0.277148 0.26854 0.363542 0.361745 0.356773 0.349139 0.339278 0.3276
          0.314625 0.301205 0.288908 0.280602 0.373815 0.371881 0.366638 0.358726 0.348656 0.336888 0.323969 0.310752
          0.298775 0.290783 0.382315 0.380209 0.374644 0.366396 0.35605 0.344109 0.331147 0.318026 0.306264 0.298507
          0.316878 0.315185 0.310309 0.30245 0.29182 0.278799 0.264193 0.249549 0.237266 0.230012 0.316445 0.314747
          0.309853 0.30197 0.291315 0.278278 0.263684 0.249099 0.236916 0.229755 0.322747 0.321075 0.316276 0.308593
          0.29827 0.285668 0.271468 0.256946 0.244212 0.236182 0.333159 0.331492 0.326746 0.319224 0.309215 0.297065
          0.283337 0.269053 0.256045 0.247369 0.345522 0.34381 0.338995 0.331474 0.321602 0.309745 0.296416 0.282507
          0.269679 0.260948 0.358435 0.356617 0.351592 0.343887 0.333942 0.322172 0.309093 0.295555 0.283128 0.274703
          0.37099 0.369 0.363635 0.355579 0.345373 0.333493 0.320489 0.307208 0.295176 0.287134 0.382489 0.380261
          0.374449 0.365918 0.355311 0.343166 0.330075 0.316901 0.305144 0.297411 0.392237 0.389711 0.383387 0.37432
          0.363239 0.350742 0.337456 0.324264 0.312644 0.305105 0.318854 0.317191 0.312402 0.304691 0.294249 0.28139
          0.266785 0.251801 0.238775 0.230745 0.318591 0.316924 0.312126 0.304401 0.293946 0.28108 0.26648 0.251527
          0.238556 0.230579 0.325337 0.323675 0.318921 0.311338 0.301166 0.288728 0.274607 0.259937 0.246739 0.238133
          0.336383 0.334687 0.329894 0.322362 0.312407 0.300369 0.286766 0.272537 0.259433 0.25055 0.349579 0.34778
          0.342789 0.335106 0.325144 0.313295 0.300064 0.2863 0.273606 0.264945 0.363554 0.361566 0.356198 0.348137
          0.337918 0.326004 0.312926 0.299517 0.2873 0.279071 0.37741 0.375134 0.369219 0.360579 0.349879 0.337664
          0.324512 0.311269 0.299418 0.291586 0.390406 0.387737 0.38114 0.371775 0.36043 0.347731 0.334312 0.321042
          0.309379 0.301813 0.401729 0.398568 0.391225 0.381072 0.369002 0.355723 0.34192 0.328483 0.316853 0.309418
          0.319392 0.317755 0.313049 0.305483 0.295241 0.282589 0.268101 0.253004 0.239553 0.231003 0.319229 0.31759
          0.312878 0.305306 0.295056 0.2824 0.267915 0.252834 0.239413 0.230894 0.326286 0.324628 0.319905 0.312405
          0.302378 0.290119 0.276147 0.261491 0.248091 0.239165 0.337853 0.336114 0.331248 0.323678 0.313755 0.301823
          0.288367 0.274265 0.261202 0.252271 0.351841 0.349924 0.344708 0.336813 0.326723 0.314856 0.301709 0.288099
          0.275573 0.267035 0.366954 0.364731 0.358925 0.350423 0.339864 0.327757 0.314642 0.301331 0.289298 0.281246
          0.382336 0.379648 0.373017 0.363649 0.352347 0.339716 0.326356 0.313095 0.301367 0.293693 0.397185 0.393859
          0.386232 0.375817 0.363565 0.350188 0.336352 0.32291 0.311267 0.303802 0.410428 0.406349 0.397712 0.386196