<?xml version="1.0"?>
<VTKFile type="UnstructuredGrid" version="0.1" byte_order="LittleEndian">
  <UnstructuredGrid>
    <Piece NumberOfCells="200" NumberOfPoints="462">
      <CellData Scalars="p (Pa)">
        <DataArray type="Float32" Name="p (Pa)" NumberOfComponents="1" format="ascii">
          -1.10976e+06 -1.1098e+06 -1.10971e+06 -1.1095e+06 -1.10918e+06 -1.10876e+06 -1.10826e+06 -1.1077e+06 -1.10708e+06 -1.10644e+06 -1.11012e+06 -1.11016e+06
          -1.11007e+06 -1.10985e+06 -1.10951e+06 -1.10908e+06 -1.10856e+06 -1.10798e+06 -1.10734e+06 -1.10668e+06 -1.11085e+06 -1.11089e+06 -1.11078e+06 -1.11054e+06
          -1.11018e+06 -1.10972e+06 -1.10916e+06 -1.10854e+06 -1.10787e+06 -1.10717e+06 -1.11196e+06 -1.11199e+06 -1.11186e+06 -1.1116e+06 -1.1112e+06 -1.11068e+06
          -1.11007e+06 -1.10939e+06 -1.10865e+06 -1.10789e+06 -1.11346e+06 -1.11348e+06 -1.11333e+06 -1.11302e+06 -1.11256e+06 -1.11198e+06 -1.11129e+06 -1.11052e+06
          -1.1097e+06 -1.10886e+06 -1.11538e+06 -1.11539e+06 -1.1152e+06 -1.11483e+06 -1.11429e+06 -1.11361e+06 -1.11282e+06 -1.11195e+06 -1.11102e+06 -1.11007e+06
          -1.11775e+06 -1.11774e+06 -1.1175e+06 -1.11705e+06 -1.11641e+06 -1.11561e+06 -1.11468e+06 -1.11367e+06 -1.1126e+06 -1.11151e+06 -1.1206e+06 -1.12057e+06
          -1.12026e+06 -1.11971e+06 -1.11893e+06 -1.11797e+06 -1.11688e+06 -1.11568e+06 -1.11444e+06 -1.11319e+06 -1.12398e+06 -1.12392e+06 -1.12353e+06 -1.12284e+06
          -1.12189e+06 -1.12073e+06 -1.11942e+06 -1.118e+06 -1.11654e+06 -1.11508e+06 -1.12797e+06 -1.12788e+06 -1.12737e+06 -1.1265e+06 -1.12532e+06 -1.1239e+06
          -1.12231e+06 -1.12062e+06 -1.1189e+06 -1.11719e+06 -1.13266e+06 -1.13251e+06 -1.13185e+06 -1.13074e+06 -1.12925e+06 -1.1275e+06 -1.12557e+06 -1.12354e+06
          -1.1215e+06 -1.1195e+06 -1.13817e+06 -1.13795e+06 -1.13707e+06 -1.13563e+06 -1.13375e+06 -1.13156e+06 -1.12919e+06 -1.12675e+06 -1.12432e+06 -1.12197e+06
          -1.14468e+06 -1.14435e+06 -1.14316e+06 -1.14126e+06 -1.13884e+06 -1.13609e+06 -1.13317e+06 -1.13021e+06 -1.12732e+06 -1.12457e+06 -1.15243e+06 -1.15193e+06
          -1.15029e+06 -1.14774e+06 -1.14458e+06 -1.14109e+06 -1.13747e+06 -1.1339e+06 -1.13047e+06 -1.12726e+06 -1.1618e+06 -1.16104e+06 -1.15868e+06 -1.15519e+06
          -1.15101e+06 -1.14654e+06 -1.14205e+06 -1.13773e+06 -1.13368e+06 -1.12995e+06 -1.17339e+06 -1.17215e+06 -1.16865e+06 -1.16371e+06 -1.1581e+06 -1.15235e+06
          -1.1468e+06 -1.1416e+06 -1.13685e+06 -1.13258e+06 -1.18823e+06 -1.18606e+06 -1.18054e+06 -1.17336e+06 -1.16574e+06 -1.15836e+06 -1.15152e+06 -1.14535e+06
          -1.13986e+06 -1.13502e+06 -1.20838e+06 -1.20401e+06 -1.1947e+06 -1.18399e+06 -1.17362e+06 -1.16423e+06 -1.15596e+06 -1.14877e+06 -1.14254e+06 -1.13715e+06
          -1.23864e+06 -1.2279e+06 -1.21113e+06 -1.19497e+06 -1.18107e+06 -1.16943e+06 -1.15972e+06 -1.15157e+06 -1.14469e+06 -1.13885e+06 -1.29296e+06 -1.25964e+06
          -1.22818e+06 -1.20455e+06 -1.18686e+06 -1.1732e+06 -1.16233e+06 -1.15347e+06 -1.14612e+06 -1.13997e+06
        </DataArray>
        <DataArray type="Float32" Name="saturation" NumberOfComponents="1" format="ascii">
          0.285277 0.285276 0.285278 0.285281 0.285286 0.285292 0.2853 0.285308 0.285318 0.285327 0.285271 0.285271
          0.285272 0.285275 0.28528 0.285287 0.285295 0.285304 0.285314 0.285324 0.28526 0.28526 0.285261 0.285265
          0.28527 0.285277 0.285286 0.285295 0.285306 0.285316 0.285243 0.285243 0.285245 0.285249 0.285255 0.285263
          0.285272 0.285282 0.285294 0.285305 0.28522 0.28522 0.285222 0.285227 0.285234 0.285243 0.285253 0.285265
          0.285278 0.28529 0.285191 0.285191 0.285194 0.2852 0.285208 0.285218 0.28523 0.285243 0.285258 0.285272
          0.285155 0.285156 0.285159 0.285166 0.285176 0.285188 0.285202 0.285217 0.285234 0.28525 0.285112 0.285113
          0.285117 0.285126 0.285138 0.285152 0.285169 0.285187 0.285206 0.285225 0.285061 0.285062 0.285068 0.285079
          0.285093 0.28511 0.28513 0.285152 0.285174 0.285196 0.285001 0.285003 0.285011 0.285024 0.285041 0.285063
          0.285087 0.285112 0.285138 0.285164 0.284931 0.284934 0.284943 0.28496 0.284982 0.285009 0.285038 0.285068
          0.285099 0.285129 0.284849 0.284853 0.284866 0.284887 0.284915 0.284948 0.284983 0.28502 0.285056 0.285092
          0.284753 0.284758 0.284775 0.284803 0.284839 0.28488 0.284924 0.284968 0.285011 0.285053 0.284639 0.284646
          0.28467 0.284708 0.284754 0.284806 0.28486 0.284913 0.284964 0.285012 0.284502 0.284513 0.284547 0.284598
          0.28466 0.284725 0.284792 0.284856 0.284916 0.284972 0.284334 0.284352 0.284403 0.284474 0.284556 0.28464
          0.284722 0.284798 0.284869 0.284933 0.284122 0.284152 0.284231 0.284334 0.284445 0.284552 0.284652 0.284743
          0.284824 0.284896 0.283837 0.283899 0.28403 0.284182 0.284331 0.284467 0.284587 0.284693 0.284785 0.284864
          0.283419 0.283566 0.283799 0.284026 0.284224 0.284391 0.284532 0.284651 0.284753 0.284839 0.282694 0.283135
          0.283563 0.283891 0.284141 0.284337 0.284494 0.284624 0.284732 0.284823
        </DataArray>
        <DataArray type="Float32" Name="process rank" NumberOfComponents="1" format="ascii">
          4 4 4 4 4 4 4 4 4 4 4 4
          4 4 4 4 4 4 4 4 4 4 4 4
          4 4 4 4 4 4 4 4 4 4 4 4
          4 4 4 4 4 4 4 4 4 4 4 4
          4 4 4 4 4 4 4 4 4 4 4 4
          4 4 4 4 4 4 4 4 4 4 4 4
          4 4 4 4 4 4 4 4 4 4 4 4
          4 4 4 4 4 4 4 4 4 4 4 4
          4 4 4 4 4 4 4 4 4 4 4 4
          4 4 4 4 4 4 4 4 4 4 4 4
          4 4 4 4 4 4 4 4 4 4 4 4
          4 4 4 4 4 4 4 4 4 4 4 4
          4 4 4 4 4 4 4 4 4 4 4 4
          4 4 4 4 4 4 4 4 4 4 4 4
          4 4 4 4 4 4 4 4 4 4 4 4
          4 4 4 4 4 4 4 4 4 4 4 4
          4 4 4 4 4 4 4 4
        </DataArray>
      </CellData>
      <Points>
        <DataArray type="Float32" Name="Coordinates" NumberOfComponents="3" format="ascii">
          -2.1684e-19 -0.00531441 -0.01 0.000265721 -0.00531441 -0.01 -2.1684e-19 -0.00504869 -0.01 0.000265721 -0.00504869 -0.01
          -2.1684e-19 -0.00531441 0 0.000265721 -0.00531441 0 -2.1684e-19 -0.00504869 0 0.000265721 -0.00504869 0
          0.000531441 -0.00531441 -0.01 0.000531441 -0.00504869 -0.01 0.000531441 -0.00531441 0 0.000531441 -0.00504869 0
          0.000797161 -0.00531441 -0.01 0.000797161 -0.00504869 -0.01 0.000797161 -0.00531441 0 0.000797161 -0.00504869 0
          0.00106288 -0.00531441 -0.01 0.00106288 -0.00504869 -0.01 0.00106288 -0.00531441 0 0.00106288 -0.00504869 0
          0.0013286 -0.00531441 -0.01 0.0013286 -0.00504869 -0.01 0.0013286 -0.00531441 0 0.0013286 -0.00504869 0
          0.00159432 -0.00531441 -0.01 0.00159432 -0.00504869 -0.01 0.00159432 -0.00531441 0 0.00159432 -0.00504869 0
          0.00186004 -0.00531441 -0.01 0.00186004 -0.00504869 -0.01 0.00186004 -0.00531441 0 0.00186004 -0.00504869 0
          0.00212576 -0.00531441 -0.01 0.00212576 -0.00504869 -0.01 0.00212576 -0.00531441 0 0.00212576 -0.00504869 0
          0.00239148 -0.00531441 -0.01 0.00239148 -0.00504869 -0.01 0.00239148 -0.00531441 0 0.00239148 -0.00504869 0
          0.00265721 -0.00531441 -0.01 0.00265721 -0.00504869 -0.01 0.00265721 -0.00531441 0 0.00265721 -0.00504869 0
          -2.1684e-19 -0.00478297 -0.01 0.000265721 -0.00478297 -0.01 -2.1684e-19 -0.00478297 0 0.000265721 -0.00478297 0
          0.000531441 -0.00478297 -0.01 0.000531441 -0.00478297 0 0.000797161 -0.00478297 -0.01 0.000797161 -0.00478297 0
          0.00106288 -0.00478297 -0.01 0.00106288 -0.00478297 0 0.0013286 -0.00478297 -0.01 0.0013286 -0.00478297 0
          0.00159432 -0.00478297 -0.01 0.00159432 -0.00478297 0 0.00186004 -0.00478297 -0.01 0.00186004 -0.00478297 0
          0.00212576 -0.00478297 -0.01 0.00212576 -0.00478297 0 0.00239148 -0.00478297 -0.01 0.00239148 -0.00478297 0
          0.00265721 -0.00478297 -0.01 0.00265721 -0.00478297 0 -2.1684e-19 -0.00451725 -0.01 0.000265721 -0.00451725 -0.01
          -2.1684e-19 -0.00451725 0 0.000265721 -0.00451725 0 0.000531441 -0.00451725 -0.01 0.000531441 -0.00451725 0
          0.000797161 -0.00451725 -0.01 0.000797161 -0.00451725 0 0.00106288 -0.00451725 -0.01 0.00106288 -0.00451725 0
          0.0013286 -0.00451725 -0.01 0.0013286 -0.00451725 0 0.00159432 -0.00451725 -0.01 0.00159432 -0.00451725 0
          0.00186004 -0.00451725 -0.01 0.00186004 -0.00451725 0 0.00212576 -0.00451725 -0.01 0.00212576 -0.00451725 0
          0.00239148 -0.00451725 -0.01 0.00239148 -0.00451725 0 0.00265721 -0.00451725 -0.01 0.00265721 -0.00451725 0
          -2.1684e-19 -0.00425153 -0.01 0.000265721 -0.00425153 -0.01 -2.1684e-19 -0.00425153 0 0.000265721 -0.00425153 0
          0.000531441 -0.00425153 -0.01 0.000531441 -0.00425153 0 0.000797161 -0.00425153 -0.01 0.000797161 -0.00425153 0
          0.00106288 -0.00425153 -0.01 0.00106288 -0.00425153 0 0.0013286 -0.00425153 -0.01 0.0013286 -0.00425153 0
          0.00159432 -0.00425153 -0.01 0.00159432 -0.00425153 0 0.00186004 -0.00425153 -0.01 0.00186004 -0.00425153 0
          0.00212576 -0.00425153 -0.01 0.00212576 -0.00425153 0 0.00239148 -0.00425153 -0.01 0.00239148 -0.00425153 0
          0.00265721 -0.00425153 -0.01 0.00265721 -0.00425153 0 -2.1684e-19 -0.00398581 -0.01 0.000265721 -0.00398581 -0.01
          -2.1684e-19 -0.00398581 0 0.000265721 -0.00398581 0 0.000531441 -0.00398581 -0.01 0.000531441 -0.00398581 0
          0.000797161 -0.00398581 -0.01 0.000797161 -0.00398581 0 0.00106288 -0.00398581 -0.01 0.00106288 -0.00398581 0
          0.0013286 -0.00398581 -0.01 0.0013286 -0.00398581 0 0.00159432 -0.00398581 -0.01 0.00159432 -0.00398581 0
          0.00186004 -0.00398581 -0.01 0.00186004 -0.00398581 0 0.00212576 -0.00398581 -0.01 0.00212576 -0.00398581 0
          0.00239148 -0.00398581 -0.01 0.00239148 -0.00398581 0 0.00265721 -0.00398581 -0.01 0.00265721 -0.00398581 0
          -2.1684e-19 -0.00372009 -0.01 0.000265721 -0.00372009 -0.01 -2.1684e-19 -0.00372009 0 0.000265721 -0.00372009 0
          0.000531441 -0.00372009 -0.01 0.000531441 -0.00372009 0 0.000797161 -0.00372009 -0.01 0.000797161 -0.00372009 0
          0.00106288 -0.00372009 -0.01 0.00106288 -0.00372009 0 0.0013286 -0.00372009 -0.01 0.0013286 -0.00372009 0
          0.00159432 -0.00372009 -0.01 0.00159432 -0.00372009 0 0.00186004 -0.00372009 -0.01 0.00186004 -0.00372009 0
          0.00212576 -0.00372009 -0.01 0.00212576 -0.00372009 0 0.00239148 -0.00372009 -0.01 0.00239148 -0.00372009 0
          0.00265721 -0.00372009 -0.01 0.00265721 -0.00372009 0 -2.1684e-19 -0.00345437 -0.01 0.000265721 -0.00345437 -0.01
          -2.1684e-19 -0.00345437 0 0.000265721 -0.00345437 0 0.000531441 -0.00345437 -0.01 0.000531441 -0.00345437 0
          0.000797161 -0.00345437 -0.01 0.000797161 -0.00345437 0 0.00106288 -0.00345437 -0.01 0.00106288 -0.00345437 0
          0.0013286 -0.00345437 -0.01 0.0013286 -0.00345437 0 0.00159432 -0.00345437 -0.01 0.00159432 -0.00345437 0
          0.00186004 -0.00345437 -0.01 0.00186004 -0.00345437 0 0.00212576 -0.00345437 -0.01 0.00212576 -0.00345437 0
          0.00239148 -0.00345437 -0.01 0.00239148 -0.00345437 0 0.00265721 -0.00345437 -0.01 0.00265721 -0.00345437 0
          -2.1684e-19 -0.00318865 -0.01 0.000265721 -0.00318865 -0.01 -2.1684e-19 -0.00318865 0 0.000265721 -0.00318865 0
          0.000531441 -0.00318865 -0.01 0.000531441 -0.00318865 0 0.000797161 -0.00318865 -0.01 0.000797161 -0.00318865 0
          0.00106288 -0.00318865 -0.01 0.00106288 -0.00318865 0 0.0013286 -0.00318865 -0.01 0.0013286 -0.00318865 0
          0.00159432 -0.00318865 -0.01 0.00159432 -0.00318865 0 0.00186004 -0.00318865 -0.01 0.00186004 -0.00318865 0
          0.00212576 -0.00318865 -0.01 0.00212576 -0.00318865 0 0.00239148 -0.00318865 -0.01 0.00239148 -0.00318865 0
          0.00265721 -0.00318865 -0.01 0.00265721 -0.00318865 0 -2.1684e-19 -0.00292293 -0.01 0.000265721 -0.00292293 -0.01
          -2.1684e-19 -0.00292293 0 0.000265721 -0.00292293 0 0.000531441 -0.00292293 -0.01 0.000531441 -0.00292293 0
          0.000797161 -0.00292293 -0.01 0.000797161 -0.00292293 0 0.00106288 -0.00292293 -0.01 0.00106288 -0.00292293 0
          0.0013286 -0.00292293 -0.01 0.0013286 -0.00292293 0 0.00159432 -0.00292293 -0.01 0.00159432 -0.00292293 0
          0.00186004 -0.00292293 -0.01 0.00186004 -0.00292293 0 0.00212576 -0.00292293 -0.01 0.00212576 -0.00292293 0
          0.00239148 -0.00292293 -0.01 0.00239148 -0.00292293 0 0.00265721 -0.00292293 -0.01 0.00265721 -0.00292293 0
          -2.1684e-19 -0.00265721 -0.01 0.000265721 -0.00265721 -0.01 -2.1684e-19 -0.00265721 0 0.000265721 -0.00265721 0
          0.000531441 -0.00265721 -0.01 0.000531441 -0.00265721 0 0.000797161 -0.00265721 -0.01 0.000797161 -0.00265721 0
          0.00106288 -0.00265721 -0.01 0.00106288 -0.00265721 0 0.0013286 -0.00265721 -0.01 0.0013286 -0.00265721 0
          0.00159432 -0.00265721 -0.01 0.00159432 -0.00265721 0 0.00186004 -0.00265721 -0.01 0.00186004 -0.00265721 0
          0.00212576 -0.00265721 -0.01 0.00212576 -0.00265721 0 0.00239148 -0.00265721 -0.01 0.00239148 -0.00265721 0
          0.00265721 -0.00265721 -0.01 0.00265721 -0.00265721 0 -2.1684e-19 -0.00239148 -0.01 0.000265721 -0.00239148 -0.01
          -2.1684e-19 -0.00239148 0 0.000265721 -0.00239148 0 0.000531441 -0.00239148 -0.01 0.000531441 -0.00239148 0
          0.000797161 -0.00239148 -0.01 0.000797161 -0.00239148 0 0.00106288 -0.00239148 -0.01 0.00106288 -0.00239148 0
          0.0013286 -0.00239148 -0.01 0.0013286 -0.00239148 0 0.00159432 -0.00239148 -0.01 0.00159432 -0.00239148 0
          0.00186004 -0.00239148 -0.01 0.00186004 -0.00239148 0 0.00212576 -0.00239148 -0.01 0.00212576 -0.00239148 0
          0.00239148 -0.00239148 -0.01 0.00239148 -0.00239148 0 0.00265721 -0.00239148 -0.01 0.00265721 -0.00239148 0
          -2.1684e-19 -0.00212576 -0.01 0.000265721 -0.00212576 -0.01 -2.1684e-19 -0.00212576 0 0.000265721 -0.00212576 0
          0.000531441 -0.00212576 -0.01 0.000531441 -0.00212576 0 0.000797161 -0.00212576 -0.01 0.000797161 -0.00212576 0
          0.00106288 -0.00212576 -0.01 0.00106288 -0.00212576 0 0.0013286 -0.00212576 -0.01 0.0013286 -0.00212576 0
          0.00159432 -0.00212576 -0.01 0.00159432 -0.00212576 0 0.00186004 -0.00212576 -0.01 0.00186004 -0.00212576 0
          0.00212576 -0.00212576 -0.01 0.00212576 -0.00212576 0 0.00239148 -0.00212576 -0.01 0.00239148 -0.00212576 0
          0.00265721 -0.00212576 -0.01 0.00265721 -0.00212576 0 -2.1684e-19 -0.00186004 -0.01 0.000265721 -0.00186004 -0.01
          -2.1684e-19 -0.00186004 0 0.000265721 -0.00186004 0 0.000531441 -0.00186004 -0.01 0.000531441 -0.00186004 0
          0.000797161 -0.00186004 -0.01 0.000797161 -0.00186004 0 0.00106288 -0.00186004 -0.01 0.00106288 -0.00186004 0
          0.0013286 -0.00186004 -0.01 0.0013286 -0.00186004 0 0.00159432 -0.00186004 -0.01 0.00159432 -0.00186004 0
          0.00186004 -0.00186004 -0.01 0.00186004 -0.00186004 0 0.00212576 -0.00186004 -0.01 0.00212576 -0.00186004 0
          0.00239148 -0.00186004 -0.01 0.00239148 -0.00186004 0 0.00265721 -0.00186004 -0.01 0.00265721 -0.00186004 0
          -2.1684e-19 -0.00159432 -0.01 0.000265721 -0.00159432 -0.01 -2.1684e-19 -0.00159432 0 0.000265721 -0.00159432 0
          0.000531441 -0.00159432 -0.01 0.000531441 -0.00159432 0 0.000797161 -0.00159432 -0.01 0.000797161 -0.00159432 0
          0.00106288 -0.00159432 -0.01 0.00106288 -0.00159432 0 0.0013286 -0.00159432 -0.01 0.0013286 -0.00159432 0
          0.00159432 -0.00159432 -0.01 0.00159432 -0.00159432 0 0.00186004 -0.00159432 -0.01 0.00186004 -0.00159432 0
          0.00212576 -0.00159432 -0.01 0.00212576 -0.00159432 0 0.00239148 -0.00159432 -0.01 0.00239148 -0.00159432 0
          0.00265721 -0.00159432 -0.01 0.00265721 -0.00159432 0 -2.1684e-19 -0.0013286 -0.01 0.000265721 -0.0013286 -0.01
          -2.1684e-19 -0.0013286 0 0.000265721 -0.0013286 0 0.000531441 -0.0013286 -0.01 0.000531441 -0.0013286 0
          0.000797161 -0.0013286 -0.01 0.000797161 -0.0013286 0 0.00106288 -0.0013286 -0.01 0.00106288 -0.0013286 0
          0.0013286 -0.0013286 -0.01 0.0013286 -0.0013286 0 0.00159432 -0.0013286 -0.01 0.00159432 -0.0013286 0
          0.00186004 -0.0013286 -0.01 0.00186004 -0.0013286 0 0.00212576 -0.0013286 -0.01 0.00212576 -0.0013286 0
          0.00239148 -0.0013286 -0.01 0.00239148 -0.0013286 0 0.00265721 -0.0013286 -0.01 0.00265721 -0.0013286 0
          -2.1684e-19 -0.00106288 -0.01 0.000265721 -0.00106288 -0.01 -2.1684e-19 -0.00106288 0 0.000265721 -0.00106288 0
          0.000531441 -0.00106288 -0.01 0.000531441 -0.00106288 0 0.000797161 -0.00106288 -0.01 0.000797161 -0.00106288 0
          0.00106288 -0.00106288 -0.01 0.00106288 -0.00106288 0 0.0013286 -0.00106288 -0.01 0.0013286 -0.00106288 0
          0.00159432 -0.00106288 -0.01 0.00159432 -0.00106288 0 0.00186004 -0.00106288 -0.01 0.00186004 -0.00106288 0
          0.00212576 -0.00106288 -0.01 0.00212576 -0.00106288 0 0.00239148 -0.00106288 -0.01 0.00239148 -0.00106288 0
          0.00265721 -0.00106288 -0.01 0.00265721 -0.00106288 0 -2.1684e-19 -0.000797161 -0.01 0.000265721 -0.000797161 -0.01
          -2.1684e-19 -0.000797161 0 0.000265721 -0.000797161 0 0.000531441 -0.000797161 -0.01 0.000531441 -0.000797161 0
          0.000797161 -0.000797161 -0.01 0.000797161 -0.000797161 0 0.00106288 -0.000797161 -0.01 0.00106288 -0.000797161 0
          0.0013286 -0.000797161 -0.01 0.0013286 -0.000797161 0 0.00159432 -0.000797161 -0.01 0.00159432 -0.000797161 0
          0.00186004 -0.000797161 -0.01 0.00186004 -0.000797161 0 0.00212576 -0.000797161 -0.01 0.00212576 -0.000797161 0
          0.00239148 -0.000797161 -0.01 0.00239148 -0.000797161 0 0.00265721 -0.000797161 -0.01 0.00265721 -0.000797161 0
          -2.1684e-19 -0.000531441 -0.01 0.000265721 -0.000531441 -0.01 -2.1684e-19 -0.000531441 0 0.000265721 -0.000531441 0
          0.000531441 -0.000531441 -0.01 0.000531441 -0.000531441 0 0.000797161 -0.000531441 -0.01 0.000797161 -0.000531441 0
          0.00106288 -0.000531441 -0.01 0.00106288 -0.000531441 0 0.0013286 -0.000531441 -0.01 0.0013286 -0.000531441 0
          0.00159432 -0.000531441 -0.01 0.00159432 -0.000531441 0 0.00186004 -0.000531441 -0.01 0.00186004 -0.000531441 0
          0.00212576 -0.000531441 -0.01 0.00212576 -0.000531441 0 0.00239148 -0.000531441 -0.01 0.00239148 -0.000531441 0
          0.00265721 -0.000531441 -0.01 0.00265721 -0.000531441 0 -2.1684e-19 -0.000265721 -0.01 0.000265721 -0.000265721 -0.01
          -2.1684e-19 -0.000265721 0 0.000265721 -0.000265721 0 0.000531441 -0.000265721 -0.01 0.000531441 -0.000265721 0
          0.000797161 -0.000265721 -0.01 0.000797161 -0.000265721 0 0.00106288 -0.000265721 -0.01 0.00106288 -0.000265721 0
          0.0013286 -0.000265721 -0.01 0.0013286 -0.000265721 0 0.00159432 -0.000265721 -0.01 0.00159432 -0.000265721 0
          0.00186004 -0.000265721 -0.01 0.00186004 -0.000265721 0 0.00212576 -0.000265721 -0.01 0.00212576 -0.000265721 0
          0.00239148 -0.000265721 -0.01 0.00239148 -0.000265721 0 0.00265721 -0.000265721 -0.01 0.00265721 -0.000265721 0
          -2.1684e-19 -2.1684e-19 -0.01 0.000265721 -2.1684e-19 -0.01 -2.1684e-19 -2.1684e-19 0 0.000265721 -2.1684e-19 0
          0.000531441 -2.1684e-19 -0.01 0.000531441 -2.1684e-19 0 0.000797161 -2.1684e-19 -0.01 0.000797161 -2.1684e-19 0
          0.00106288 -2.1684e-19 -0.01 0.00106288 -2.1684e-19 0 0.0013286 -2.1684e-19 -0.01 0.0013286 -2.1684e-19 0
          0.00159432 -2.1684e-19 -0.01 0.00159432 -2.1684e-19 0 0.00186004 -2.1684e-19 -0.01 0.00186004 -2.1684e-19 0
          0.00212576 -2.1684e-19 -0.01 0.00212576 -2.1684e-19 0 0.00239148 -2.1684e-19 -0.01 0.00239148 -2.1684e-19 0
          0.00265721 -2.1684e-19 -0.01 0.00265721 -2.1684e-19 0
        </DataArray>
      </Points>
      <Cells>
        <DataArray type="Int32" Name="connectivity" NumberOfComponents="1" format="ascii">
          0 1 3 2 4 5 7 6 1 8 9 3
          5 10 11 7 8 12 13 9 10 14 15 11
          12 16 17 13 14 18 19 15 16 20 21 17
          18 22 23 19 20 24 25 21 22 26 27 23
          24 28 29 25 26 30 31 27 28 32 33 29
          30 34 35 31 32 36 37 33 34 38 39 35
          36 40 41 37 38 42 43 39 2 3 45 44
          6 7 47 46 3 9 48 45 7 11 49 47
          9 13 50 48 11 15 51 49 13 17 52 50
          15 19 53 51 17 21 54 52 19 23 55 53
          21 25 56 54 23 27 57 55 25 29 58 56
          27 31 59 57 29 33 60 58 31 35 61 59
          33 37 62 60 35 39 63 61 37 41 64 62
          39 43 65 63 44 45 67 66 46 47 69 68
          45 48 70 67 47 49 71 69 48 50 72 70
          49 51 73 71 50 52 74 72 51 53 75 73
          52 54 76 74 53 55 77 75 54 56 78 76
          55 57 79 77 56 58 80 78 57 59 81 79
          58 60 82 80 59 61 83 81 60 62 84 82
          61 63 85 83 62 64 86 84 63 65 87 85
          66 67 89 88 68 69 91 90 67 70 92 89
          69 71 93 91 70 72 94 92 71 73 95 93
          72 74 96 94 73 75 97 95 74 76 98 96
          75 77 99 97 76 78 100 98 77 79 101 99
          78 80 102 100 79 81 103 101 80 82 104 102
          81 83 105 103 82 84 106 104 83 85 107 105
          84 86 108 106 85 87 109 107 88 89 111 110
          90 91 113 112 89 92 114 111 91 93 115 113
          92 94 116 114 93 95 117 115 94 96 118 116
          95 97 119 117 96 98 120 118 97 99 121 119
          98 100 122 120 99 101 123 121 100 102 124 122
          101 103 125 123 102 104 126 124 103 105 127 125
          104 106 128 126 105 107 129 127 106 108 130 128
          107 109 131 129 110 111 133 132 112 113 135 134
          111 114 136 133 113 115 137 135 114 116 138 136
          115 117 139 137 116 118 140 138 117 119 141 139
          118 120 142 140 119 121 143 141 120 122 144 142
          121 123 145 143 122 124 146 144 123 125 147 145
          124 126 148 146 125 127 149 147 126 128 150 148
          127 129 151 149 128 130 152 150 129 131 153 151
          132 133 155 154 134 135 157 156 133 136 158 155
          135 137 159 157 136 138 160 158 137 139 161 159
          138 140 162 160 139 141 163 161 140 142 164 162
          141 143 165 163 142 144 166 164 143 145 167 165
          144 146 168 166 145 147 169 167 146 148 170 168
          147 149 171 169 148 150 172 170 149 151 173 171
          150 152 174 172 151 153 175 173 154 155 177 176
          156 157 179 178 155 158 180 177 157 159 181 179
          158 160 182 180 159 161 183 181 160 162 184 182
          161 163 185 183 162 164 186 184 163 165 187 185
          164 166 188 186 165 167 189 187 166 168 190 188
          167 169 191 189 168 170 192 190 169 171 193 191
          170 172 194 192 171 173 195 193 172 174 196 194
          173 175 197 195 176 177 199 198 178 179 201 200
          177 180 202 199 179 181 203 201 180 182 204 202
          181 183 205 203 182 184 206 204 183 185 207 205
          184 186 208 206 185 187 209 207 186 188 210 208
          187 189 211 209 188 190 212 210 189 191 213 211
          190 192 214 212 191 193 215 213 192 194 216 214
          193 195 217 215 194 196 218 216 195 197 219 217
          198 199 221 220 200 201 223 222 199 202 224 221
          201 203 225 223 202 204 226 224 203 205 227 225
          204 206 228 226 205 207 229 227 206 208 230 228
          207 209 231 229 208 210 232 230 209 211 233 231
          210 212 234 232 211 213 235 233 212 214 236 234
          213 215 237 235 214 216 238 236 215 217 239 237
          216 218 240 238 217 219 241 239 220 221 243 242
          222 223 245 244 221 224 246 243 223 225 247 245
          224 226 248 246 225 227 249 247 226 228 250 248
          227 229 251 249 228 230 252 250 229 231 253 251
          230 232 254 252 231 233 255 253 232 234 256 254
          233 235 257 255 234 236 258 256 235 237 259 257
          236 238 260 258 237 239 261 259 238 240 262 260
          239 241 263 261 242 243 265 264 244 245 267 266
          243 246 268 265 245 247 269 267 246 248 270 268
          247 249 271 269 248 250 272 270 249 251 273 271
          250 252 274 272 251 253 275 273 252 254 276 274
          253 255 277 275 254 256 278 276 255 257 279 277
          256 258 280 278 257 259 281 279 258 260 282 280
          259 261 283 281 260 262 284 282 261 263 285 283
          264 265 287 286 266 267 289 288 265 268 290 287
          267 269 291 289 268 270 292 290 269 271 293 291
          270 272 294 292 271 273 295 293 272 274 296 294
          273 275 297 295 274 276 298 296 275 277 299 297
          276 278 300 298 277 279 301 299 278 280 302 300
          279 281 303 301 280 282 304 302 281 283 305 303
          282 284 306 304 283 285 307 305 286 287 309 308
          288 289 311 310 287 290 312 309 289 291 313 311
          290 292 314 312 291 293 315 313 292 294 316 314
          293 295 317 315 294 296 318 316 295 297 319 317
          296 298 320 318 297 299 321 319 298 300 322 320
          299 301 323 321 300 302 324 322 301 303 325 323
          302 304 326 324 303 305 327 325 304 306 328 326
          305 307 329 327 308 309 331 330 310 311 333 332
          309 312 334 331 311 313 335 333 312 314 336 334
          313 315 337 335 314 316 338 336 315 317 339 337
          316 318 340 338 317 319 341 339 318 320 342 340
          319 321 343 341 320 322 344 342 321 323 345 343
          322 324 346 344 323 325 347 345 324 326 348 346
          325 327 349 347 326 328 350 348 327 329 351 349
          330 331 353 352 332 333 355 354 331 334 356 353
          333 335 357 355 334 336 358 356 335 337 359 357
          336 338 360 358 337 339 361 359 338 340 362 360
          339 341 363 361 340 342 364 362 341 343 365 363
          342 344 366 364 343 345 367 365 344 346 368 366
          345 347 369 367 346 348 370 368 347 349 371 369
          348 350 372 370 349 351 373 371 352 353 375 374
          354 355 377 376 353 356 378 375 355 357 379 377
          356 358 380 378 357 359 381 379 358 360 382 380
          359 361 383 381 360 362 384 382 361 363 385 383
          362 364 386 384 363 365 387 385 364 366 388 386
          365 367 389 387 366 368 390 388 367 369 391 389
          368 370 392 390 369 371 393 391 370 372 394 392
          371 373 395 393 374 375 397 396 376 377 399 398
          375 378 400 397 377 379 401 399 378 380 402 400
          379 381 403 401 380 382 404 402 381 383 405 403
          382 384 406 404 383 385 407 405 384 386 408 406
          385 387 409 407 386 388 410 408 387 389 411 409
          388 390 412 410 389 391 413 411 390 392 414 412
          391 393 415 413 392 394 416 414 393 395 417 415
          396 397 419 418 398 399 421 420 397 400 422 419
          399 401 423 421 400 402 424 422 401 403 425 423
          402 404 426 424 403 405 427 425 404 406 428 426
          405 407 429 427 406 408 430 428 407 409 431 429
          408 410 432 430 409 411 433 431 410 412 434 432
          411 413 435 433 412 414 436 434 413 415 437 435
          414 416 438 436 415 417 439 437 418 419 441 440
          420 421 443 442 419 422 444 441 421 423 445 443
          422 424 446 444 423 425 447 445 424 426 448 446
          425 427 449 447 426 428 450 448 427 429 451 449
          428 430 452 450 429 431 453 451 430 432 454 452
          431 433 455 453 432 434 456 454 433 435 457 455
          434 436 458 456 435 437 459 457 436 438 460 458
          437 439 461 459
        </DataArray>
        <DataArray type="Int32" Name="offsets" NumberOfComponents="1" format="ascii">
          8 16 24 32 40 48 56 64 72 80 88 96
          104 112 120 128 136 144 152 160 168 176 184 192
          200 208 216 224 232 240 248 256 264 272 280 288
          296 304 312 320 328 336 344 352 360 368 376 384
          392 400 408 416 424 432 440 448 456 464 472 480
          488 496 504 512 520 528 536 544 552 560 568 576
          584 592 600 608 616 624 632 640 648 656 664 672
          680 688 696 704 712 720 728 736 744 752 760 768
          776 784 792 800 808 816 824 832 840 848 856 864
          872 880 888 896 904 912 920 928 936 944 952 960
          968 976 984 992 1000 1008 1016 1024 1032 1040 1048 1056
          1064 1072 1080 1088 1096 1104 1112 1120 1128 1136 1144 1152
          1160 1168 1176 1184 1192 1200 1208 1216 1224 1232 1240 1248
          1256 1264 1272 1280 1288 1296 1304 1312 1320 1328 1336 1344
          1352 1360 1368 1376 1384 1392 1400 1408 1416 1424 1432 1440
          1448 1456 1464 1472 1480 1488 1496 1504 1512 1520 1528 1536
          1544 1552 1560 1568 1576 1584 1592 1600
        </DataArray>
        <DataArray type="UInt8" Name="types" NumberOfComponents="1" format="ascii">
          12 12 12 12 12 12 12 12 12 12 12 12
          12 12 12 12 12 12 12 12 12 12 12 12
          12 12 12 12 12 12 12 12 12 12 12 12
          12 12 12 12 12 12 12 12 12 12 12 12
          12 12 12 12 12 12 12 12 12 12 12 12
          12 12 12 12 12 12 12 12 12 12 12 12
          12 12 12 12 12 12 12 12 12 12 12 12
          12 12 12 12 12 12 12 12 12 12 12 12
          12 12 12 12 12 12 12 12 12 12 12 12
          12 12 12 12 12 12 12 12 12 12 12 12
          12 12 12 12 12 12 12 12 12 12 12 12
          12 12 12 12 12 12 12 12 12 12 12 12
          12 12 12 12 12 12 12 12 12 12 12 12
          12 12 12 12 12 12 12 12 12 12 12 12
          12 12 12 12 12 12 12 12 12 12 12 12
          12 12 12 12 12 12 12 12 12 12 12 12
          12 12 12 12 12 12 12 12
        </DataArray>
      </Cells>
    </Piece>
  </UnstructuredGrid>
</VTKFile>
