<?xml version="1.0"?>
<VTKFile type="UnstructuredGrid" version="0.1" byte_order="LittleEndian">
  <UnstructuredGrid>
    <Piece NumberOfCells="280" NumberOfPoints="630">
      <CellData Scalars="p (Pa)">
        <DataArray type="Float32" Name="p (Pa)" NumberOfComponents="1" format="ascii">
          -1.10626e+06 -1.10654e+06 -1.1071e+06 -1.10794e+06 -1.10906e+06 -1.11047e+06 -1.11217e+06 -1.11417e+06 -1.11647e+06 -1.11906e+06 -1.12196e+06 -1.12514e+06
          -1.12858e+06 -1.13223e+06 -1.13604e+06 -1.13989e+06 -1.14362e+06 -1.14701e+06 -1.1498e+06 -1.15169e+06 -1.10545e+06 -1.10571e+06 -1.10623e+06 -1.107e+06
          -1.10804e+06 -1.10934e+06 -1.1109e+06 -1.11272e+06 -1.1148e+06 -1.11712e+06 -1.11969e+06 -1.12248e+06 -1.12546e+06 -1.12858e+06 -1.13176e+06 -1.13491e+06
          -1.13789e+06 -1.14055e+06 -1.14268e+06 -1.14411e+06 -1.10461e+06 -1.10485e+06 -1.10533e+06 -1.10604e+06 -1.107e+06 -1.10818e+06 -1.1096e+06 -1.11125e+06
          -1.11312e+06 -1.1152e+06 -1.11747e+06 -1.11991e+06 -1.12248e+06 -1.12514e+06 -1.1278e+06 -1.1304e+06 -1.13282e+06 -1.13493e+06 -1.1366e+06 -1.13771e+06
          -1.10377e+06 -1.10399e+06 -1.10443e+06 -1.10508e+06 -1.10596e+06 -1.10704e+06 -1.10833e+06 -1.10981e+06 -1.11149e+06 -1.11334e+06 -1.11534e+06 -1.11747e+06
          -1.11969e+06 -1.12196e+06 -1.1242e+06 -1.12636e+06 -1.12834e+06 -1.13005e+06 -1.13139e+06 -1.13228e+06 -1.10294e+06 -1.10314e+06 -1.10354e+06 -1.10414e+06
          -1.10494e+06 -1.10592e+06 -1.10709e+06 -1.10843e+06 -1.10993e+06 -1.11157e+06 -1.11334e+06 -1.1152e+06 -1.11712e+06 -1.11906e+06 -1.12097e+06 -1.12278e+06
          -1.12442e+06 -1.12582e+06 -1.12692e+06 -1.12765e+06 -1.10214e+06 -1.10233e+06 -1.10269e+06 -1.10324e+06 -1.10396e+06 -1.10486e+06 -1.10591e+06 -1.10712e+06
          -1.10846e+06 -1.10993e+06 -1.11149e+06 -1.11312e+06 -1.1148e+06 -1.11647e+06 -1.11809e+06 -1.11962e+06 -1.121e+06 -1.12217e+06 -1.12309e+06 -1.1237e+06
          -1.10139e+06 -1.10156e+06 -1.1019e+06 -1.1024e+06 -1.10306e+06 -1.10387e+06 -1.10482e+06 -1.10591e+06 -1.10712e+06 -1.10843e+06 -1.10981e+06 -1.11125e+06
          -1.11272e+06 -1.11417e+06 -1.11557e+06 -1.11688e+06 -1.11806e+06 -1.11905e+06 -1.11982e+06 -1.12035e+06 -1.1007e+06 -1.10085e+06 -1.10116e+06 -1.10162e+06
          -1.10223e+06 -1.10297e+06 -1.10384e+06 -1.10482e+06 -1.10591e+06 -1.10709e+06 -1.10833e+06 -1.1096e+06 -1.1109e+06 -1.11217e+06 -1.11339e+06 -1.11453e+06
          -1.11554e+06 -1.1164e+06 -1.11707e+06 -1.11752e+06 -1.10008e+06 -1.10023e+06 -1.10051e+06 -1.10093e+06 -1.10149e+06 -1.10217e+06 -1.10297e+06 -1.10387e+06
          -1.10486e+06 -1.10592e+06 -1.10704e+06 -1.10818e+06 -1.10934e+06 -1.11047e+06 -1.11155e+06 -1.11255e+06 -1.11344e+06 -1.11419e+06 -1.11477e+06 -1.11518e+06
          -1.09955e+06 -1.09969e+06 -1.09995e+06 -1.10034e+06 -1.10086e+06 -1.10149e+06 -1.10223e+06 -1.10306e+06 -1.10396e+06 -1.10494e+06 -1.10596e+06 -1.107e+06
          -1.10804e+06 -1.10906e+06 -1.11003e+06 -1.11092e+06 -1.11172e+06 -1.11238e+06 -1.11291e+06 -1.11327e+06 -1.09912e+06 -1.09924e+06 -1.09949e+06 -1.09986e+06
          -1.10034e+06 -1.10093e+06 -1.10162e+06 -1.1024e+06 -1.10324e+06 -1.10414e+06 -1.10508e+06 -1.10604e+06 -1.107e+06 -1.10794e+06 -1.10882e+06 -1.10964e+06
          -1.11036e+06 -1.11097e+06 -1.11144e+06 -1.11178e+06 -1.09878e+06 -1.0989e+06 -1.09914e+06 -1.09949e+06 -1.09995e+06 -1.10051e+06 -1.10116e+06 -1.1019e+06
          -1.10269e+06 -1.10354e+06 -1.10443e+06 -1.10533e+06 -1.10623e+06 -1.1071e+06 -1.10792e+06 -1.10868e+06 -1.10935e+06 -1.10992e+06 -1.11036e+06 -1.11068e+06
          -1.09856e+06 -1.09867e+06 -1.0989e+06 -1.09924e+06 -1.09969e+06 -1.10023e+06 -1.10085e+06 -1.10156e+06 -1.10233e+06 -1.10314e+06 -1.10399e+06 -1.10485e+06
          -1.10571e+06 -1.10654e+06 -1.10733e+06 -1.10805e+06 -1.10868e+06 -1.10922e+06 -1.10965e+06 -1.10995e+06 -1.09844e+06 -1.09856e+06 -1.09878e+06 -1.09912e+06
          -1.09955e+06 -1.10008e+06 -1.1007e+06 -1.10139e+06 -1.10214e+06 -1.10294e+06 -1.10377e+06 -1.10461e+06 -1.10545e+06 -1.10626e+06 -1.10703e+06 -1.10773e+06
          -1.10835e+06 -1.10888e+06 -1.10929e+06 -1.10959e+06
        </DataArray>
        <DataArray type="Float32" Name="saturation" NumberOfComponents="1" format="ascii">
          0.28533 0.285326 0.285317 0.285305 0.285287 0.285266 0.28524 0.28521 0.285175 0.285136 0.285092 0.285044
          0.284992 0.284938 0.284881 0.284824 0.284768 0.284718 0.284677 0.28465 0.285343 0.285339 0.285331 0.285319
          0.285303 0.285283 0.285259 0.285232 0.2852 0.285165 0.285126 0.285084 0.285039 0.284992 0.284945 0.284898
          0.284853 0.284814 0.284782 0.284761 0.285355 0.285352 0.285344 0.285333 0.285319 0.285301 0.285279 0.285254
          0.285226 0.285194 0.28516 0.285123 0.285084 0.285044 0.285004 0.284965 0.284929 0.284898 0.284873 0.284856
          0.285368 0.285365 0.285358 0.285348 0.285335 0.285318 0.285299 0.285276 0.28525 0.285222 0.285192 0.28516
          0.285126 0.285092 0.285058 0.285026 0.284996 0.28497 0.28495 0.284937 0.285381 0.285378 0.285372 0.285363
          0.28535 0.285335 0.285318 0.285297 0.285274 0.285249 0.285222 0.285194 0.285165 0.285136 0.285107 0.28508
          0.285055 0.285034 0.285017 0.285006 0.285393 0.28539 0.285385 0.285376 0.285365 0.285352 0.285335 0.285317
          0.285297 0.285274 0.28525 0.285226 0.2852 0.285175 0.28515 0.285127 0.285106 0.285089 0.285075 0.285066
          0.285405 0.285402 0.285397 0.285389 0.285379 0.285367 0.285352 0.285335 0.285317 0.285297 0.285276 0.285254
          0.285232 0.28521 0.285188 0.285169 0.285151 0.285136 0.285124 0.285116 0.285415 0.285413 0.285408 0.285401
          0.285392 0.285381 0.285367 0.285352 0.285335 0.285318 0.285299 0.285279 0.285259 0.28524 0.285221 0.285204
          0.285189 0.285176 0.285166 0.285159 0.285425 0.285423 0.285418 0.285412 0.285403 0.285393 0.285381 0.285367
          0.285352 0.285335 0.285318 0.285301 0.285283 0.285266 0.28525 0.285234 0.285221 0.285209 0.285201 0.285194
          0.285433 0.285431 0.285427 0.285421 0.285413 0.285403 0.285392 0.285379 0.285365 0.28535 0.285335 0.285319
          0.285303 0.285287 0.285273 0.285259 0.285247 0.285237 0.285229 0.285223 0.28544 0.285438 0.285434 0.285428
          0.285421 0.285412 0.285401 0.285389 0.285376 0.285363 0.285348 0.285333 0.285319 0.285305 0.285291 0.285279
          0.285268 0.285258 0.285251 0.285246 0.285445 0.285443 0.285439 0.285434 0.285427 0.285418 0.285408 0.285397
          0.285385 0.285372 0.285358 0.285344 0.285331 0.285317 0.285305 0.285293 0.285283 0.285274 0.285268 0.285263
          0.285448 0.285447 0.285443 0.285438 0.285431 0.285423 0.285413 0.285402 0.28539 0.285378 0.285365 0.285352
          0.285339 0.285326 0.285314 0.285303 0.285293 0.285285 0.285278 0.285274 0.28545 0.285448 0.285445 0.28544
          0.285433 0.285425 0.285415 0.285405 0.285393 0.285381 0.285368 0.285355 0.285343 0.28533 0.285318 0.285308
          0.285298 0.28529 0.285284 0.285279
        </DataArray>
        <DataArray type="Float32" Name="process rank" NumberOfComponents="1" format="ascii">
          2 2 2 2 2 2 2 2 2 2 2 2
          2 2 2 2 2 2 2 2 2 2 2 2
          2 2 2 2 2 2 2 2 2 2 2 2
          2 2 2 2 2 2 2 2 2 2 2 2
          2 2 2 2 2 2 2 2 2 2 2 2
          2 2 2 2 2 2 2 2 2 2 2 2
          2 2 2 2 2 2 2 2 2 2 2 2
          2 2 2 2 2 2 2 2 2 2 2 2
          2 2 2 2 2 2 2 2 2 2 2 2
          2 2 2 2 2 2 2 2 2 2 2 2
          2 2 2 2 2 2 2 2 2 2 2 2
          2 2 2 2 2 2 2 2 2 2 2 2
          2 2 2 2 2 2 2 2 2 2 2 2
          2 2 2 2 2 2 2 2 2 2 2 2
          2 2 2 2 2 2 2 2 2 2 2 2
          2 2 2 2 2 2 2 2 2 2 2 2
          2 2 2 2 2 2 2 2 2 2 2 2
          2 2 2 2 2 2 2 2 2 2 2 2
          2 2 2 2 2 2 2 2 2 2 2 2
          2 2 2 2 2 2 2 2 2 2 2 2
          2 2 2 2 2 2 2 2 2 2 2 2
          2 2 2 2 2 2 2 2 2 2 2 2
          2 2 2 2 2 2 2 2 2 2 2 2
          2 2 2 2
        </DataArray>
      </CellData>
      <Points>
        <DataArray type="Float32" Name="Coordinates" NumberOfComponents="3" format="ascii">
          -0.00531441 0.00159432 -0.01 -0.00504869 0.00159432 -0.01 -0.00531441 0.00186004 -0.01 -0.00504869 0.00186004 -0.01
          -0.00531441 0.00159432 0 -0.00504869 0.00159432 0 -0.00531441 0.00186004 0 -0.00504869 0.00186004 0
          -0.00478297 0.00159432 -0.01 -0.00478297 0.00186004 -0.01 -0.00478297 0.00159432 0 -0.00478297 0.00186004 0
          -0.00451725 0.00159432 -0.01 -0.00451725 0.00186004 -0.01 -0.00451725 0.00159432 0 -0.00451725 0.00186004 0
          -0.00425153 0.00159432 -0.01 -0.00425153 0.00186004 -0.01 -0.00425153 0.00159432 0 -0.00425153 0.00186004 0
          -0.00398581 0.00159432 -0.01 -0.00398581 0.00186004 -0.01 -0.00398581 0.00159432 0 -0.00398581 0.00186004 0
          -0.00372009 0.00159432 -0.01 -0.00372009 0.00186004 -0.01 -0.00372009 0.00159432 0 -0.00372009 0.00186004 0
          -0.00345437 0.00159432 -0.01 -0.00345437 0.00186004 -0.01 -0.00345437 0.00159432 0 -0.00345437 0.00186004 0
          -0.00318865 0.00159432 -0.01 -0.00318865 0.00186004 -0.01 -0.00318865 0.00159432 0 -0.00318865 0.00186004 0
          -0.00292293 0.00159432 -0.01 -0.00292293 0.00186004 -0.01 -0.00292293 0.00159432 0 -0.00292293 0.00186004 0
          -0.00265721 0.00159432 -0.01 -0.00265721 0.00186004 -0.01 -0.00265721 0.00159432 0 -0.00265721 0.00186004 0
          -0.00239148 0.00159432 -0.01 -0.00239148 0.00186004 -0.01 -0.00239148 0.00159432 0 -0.00239148 0.00186004 0
          -0.00212576 0.00159432 -0.01 -0.00212576 0.00186004 -0.01 -0.00212576 0.00159432 0 -0.00212576 0.00186004 0
          -0.00186004 0.00159432 -0.01 -0.00186004 0.00186004 -0.01 -0.00186004 0.00159432 0 -0.00186004 0.00186004 0
          -0.00159432 0.00159432 -0.01 -0.00159432 0.00186004 -0.01 -0.00159432 0.00159432 0 -0.00159432 0.00186004 0
          -0.0013286 0.00159432 -0.01 -0.0013286 0.00186004 -0.01 -0.0013286 0.00159432 0 -0.0013286 0.00186004 0
          -0.00106288 0.00159432 -0.01 -0.00106288 0.00186004 -0.01 -0.00106288 0.00159432 0 -0.00106288 0.00186004 0
          -0.000797161 0.00159432 -0.01 -0.000797161 0.00186004 -0.01 -0.000797161 0.00159432 0 -0.000797161 0.00186004 0
          -0.000531441 0.00159432 -0.01 -0.000531441 0.00186004 -0.01 -0.000531441 0.00159432 0 -0.000531441 0.00186004 0
          -0.000265721 0.00159432 -0.01 -0.000265721 0.00186004 -0.01 -0.000265721 0.00159432 0 -0.000265721 0.00186004 0
          -2.1684e-19 0.00159432 -0.01 -2.1684e-19 0.00186004 -0.01 -2.1684e-19 0.00159432 0 -2.1684e-19 0.00186004 0
          -0.00531441 0.00212576 -0.01 -0.00504869 0.00212576 -0.01 -0.00531441 0.00212576 0 -0.00504869 0.00212576 0
          -0.00478297 0.00212576 -0.01 -0.00478297 0.00212576 0 -0.00451725 0.00212576 -0.01 -0.00451725 0.00212576 0
          -0.00425153 0.00212576 -0.01 -0.00425153 0.00212576 0 -0.00398581 0.00212576 -0.01 -0.00398581 0.00212576 0
          -0.00372009 0.00212576 -0.01 -0.00372009 0.00212576 0 -0.00345437 0.00212576 -0.01 -0.00345437 0.00212576 0
          -0.00318865 0.00212576 -0.01 -0.00318865 0.00212576 0 -0.00292293 0.00212576 -0.01 -0.00292293 0.00212576 0
          -0.00265721 0.00212576 -0.01 -0.00265721 0.00212576 0 -0.00239148 0.00212576 -0.01 -0.00239148 0.00212576 0
          -0.00212576 0.00212576 -0.01 -0.00212576 0.00212576 0 -0.00186004 0.00212576 -0.01 -0.00186004 0.00212576 0
          -0.00159432 0.00212576 -0.01 -0.00159432 0.00212576 0 -0.0013286 0.00212576 -0.01 -0.0013286 0.00212576 0
          -0.00106288 0.00212576 -0.01 -0.00106288 0.00212576 0 -0.000797161 0.00212576 -0.01 -0.000797161 0.00212576 0
          -0.000531441 0.00212576 -0.01 -0.000531441 0.00212576 0 -0.000265721 0.00212576 -0.01 -0.000265721 0.00212576 0
          -2.1684e-19 0.00212576 -0.01 -2.1684e-19 0.00212576 0 -0.00531441 0.00239148 -0.01 -0.00504869 0.00239148 -0.01
          -0.00531441 0.00239148 0 -0.00504869 0.00239148 0 -0.00478297 0.00239148 -0.01 -0.00478297 0.00239148 0
          -0.00451725 0.00239148 -0.01 -0.00451725 0.00239148 0 -0.00425153 0.00239148 -0.01 -0.00425153 0.00239148 0
          -0.00398581 0.00239148 -0.01 -0.00398581 0.00239148 0 -0.00372009 0.00239148 -0.01 -0.00372009 0.00239148 0
          -0.00345437 0.00239148 -0.01 -0.00345437 0.00239148 0 -0.00318865 0.00239148 -0.01 -0.00318865 0.00239148 0
          -0.00292293 0.00239148 -0.01 -0.00292293 0.00239148 0 -0.00265721 0.00239148 -0.01 -0.00265721 0.00239148 0
          -0.00239148 0.00239148 -0.01 -0.00239148 0.00239148 0 -0.00212576 0.00239148 -0.01 -0.00212576 0.00239148 0
          -0.00186004 0.00239148 -0.01 -0.00186004 0.00239148 0 -0.00159432 0.00239148 -0.01 -0.00159432 0.00239148 0
          -0.0013286 0.00239148 -0.01 -0.0013286 0.00239148 0 -0.00106288 0.00239148 -0.01 -0.00106288 0.00239148 0
          -0.000797161 0.00239148 -0.01 -0.000797161 0.00239148 0 -0.000531441 0.00239148 -0.01 -0.000531441 0.00239148 0
          -0.000265721 0.00239148 -0.01 -0.000265721 0.00239148 0 -2.1684e-19 0.00239148 -0.01 -2.1684e-19 0.00239148 0
          -0.00531441 0.00265721 -0.01 -0.00504869 0.00265721 -0.01 -0.00531441 0.00265721 0 -0.00504869 0.00265721 0
          -0.00478297 0.00265721 -0.01 -0.00478297 0.00265721 0 -0.00451725 0.00265721 -0.01 -0.00451725 0.00265721 0
          -0.00425153 0.00265721 -0.01 -0.00425153 0.00265721 0 -0.00398581 0.00265721 -0.01 -0.00398581 0.00265721 0
          -0.00372009 0.00265721 -0.01 -0.00372009 0.00265721 0 -0.00345437 0.00265721 -0.01 -0.00345437 0.00265721 0
          -0.00318865 0.00265721 -0.01 -0.00318865 0.00265721 0 -0.00292293 0.00265721 -0.01 -0.00292293 0.00265721 0
          -0.00265721 0.00265721 -0.01 -0.00265721 0.00265721 0 -0.00239148 0.00265721 -0.01 -0.00239148 0.00265721 0
          -0.00212576 0.00265721 -0.01 -0.00212576 0.00265721 0 -0.00186004 0.00265721 -0.01 -0.00186004 0.00265721 0
          -0.00159432 0.00265721 -0.01 -0.00159432 0.00265721 0 -0.0013286 0.00265721 -0.01 -0.0013286 0.00265721 0
          -0.00106288 0.00265721 -0.01 -0.00106288 0.00265721 0 -0.000797161 0.00265721 -0.01 -0.000797161 0.00265721 0
          -0.000531441 0.00265721 -0.01 -0.000531441 0.00265721 0 -0.000265721 0.00265721 -0.01 -0.000265721 0.00265721 0
          -2.1684e-19 0.00265721 -0.01 -2.1684e-19 0.00265721 0 -0.00531441 0.00292293 -0.01 -0.00504869 0.00292293 -0.01
          -0.00531441 0.00292293 0 -0.00504869 0.00292293 0 -0.00478297 0.00292293 -0.01 -0.00478297 0.00292293 0
          -0.00451725 0.00292293 -0.01 -0.00451725 0.00292293 0 -0.00425153 0.00292293 -0.01 -0.00425153 0.00292293 0
          -0.00398581 0.00292293 -0.01 -0.00398581 0.00292293 0 -0.00372009 0.00292293 -0.01 -0.00372009 0.00292293 0
          -0.00345437 0.00292293 -0.01 -0.00345437 0.00292293 0 -0.00318865 0.00292293 -0.01 -0.00318865 0.00292293 0
          -0.00292293 0.00292293 -0.01 -0.00292293 0.00292293 0 -0.00265721 0.00292293 -0.01 -0.00265721 0.00292293 0
          -0.00239148 0.00292293 -0.01 -0.00239148 0.00292293 0 -0.00212576 0.00292293 -0.01 -0.00212576 0.00292293 0
          -0.00186004 0.00292293 -0.01 -0.00186004 0.00292293 0 -0.00159432 0.00292293 -0.01 -0.00159432 0.00292293 0
          -0.0013286 0.00292293 -0.01 -0.0013286 0.00292293 0 -0.00106288 0.00292293 -0.01 -0.00106288 0.00292293 0
          -0.000797161 0.00292293 -0.01 -0.000797161 0.00292293 0 -0.000531441 0.00292293 -0.01 -0.000531441 0.00292293 0
          -0.000265721 0.00292293 -0.01 -0.000265721 0.00292293 0 -2.1684e-19 0.00292293 -0.01 -2.1684e-19 0.00292293 0
          -0.00531441 0.00318865 -0.01 -0.00504869 0.00318865 -0.01 -0.00531441 0.00318865 0 -0.00504869 0.00318865 0
          -0.00478297 0.00318865 -0.01 -0.00478297 0.00318865 0 -0.00451725 0.00318865 -0.01 -0.00451725 0.00318865 0
          -0.00425153 0.00318865 -0.01 -0.00425153 0.00318865 0 -0.00398581 0.00318865 -0.01 -0.00398581 0.00318865 0
          -0.00372009 0.00318865 -0.01 -0.00372009 0.00318865 0 -0.00345437 0.00318865 -0.01 -0.00345437 0.00318865 0
          -0.00318865 0.00318865 -0.01 -0.00318865 0.00318865 0 -0.00292293 0.00318865 -0.01 -0.00292293 0.00318865 0
          -0.00265721 0.00318865 -0.01 -0.00265721 0.00318865 0 -0.00239148 0.00318865 -0.01 -0.00239148 0.00318865 0
          -0.00212576 0.00318865 -0.01 -0.00212576 0.00318865 0 -0.00186004 0.00318865 -0.01 -0.00186004 0.00318865 0
          -0.00159432 0.00318865 -0.01 -0.00159432 0.00318865 0 -0.0013286 0.00318865 -0.01 -0.0013286 0.00318865 0
          -0.00106288 0.00318865 -0.01 -0.00106288 0.00318865 0 -0.000797161 0.00318865 -0.01 -0.000797161 0.00318865 0
          -0.000531441 0.00318865 -0.01 -0.000531441 0.00318865 0 -0.000265721 0.00318865 -0.01 -0.000265721 0.00318865 0
          -2.1684e-19 0.00318865 -0.01 -2.1684e-19 0.00318865 0 -0.00531441 0.00345437 -0.01 -0.00504869 0.00345437 -0.01
          -0.00531441 0.00345437 0 -0.00504869 0.00345437 0 -0.00478297 0.00345437 -0.01 -0.00478297 0.00345437 0
          -0.00451725 0.00345437 -0.01 -0.00451725 0.00345437 0 -0.00425153 0.00345437 -0.01 -0.00425153 0.00345437 0
          -0.00398581 0.00345437 -0.01 -0.00398581 0.00345437 0 -0.00372009 0.00345437 -0.01 -0.00372009 0.00345437 0
          -0.00345437 0.00345437 -0.01 -0.00345437 0.00345437 0 -0.00318865 0.00345437 -0.01 -0.00318865 0.00345437 0
          -0.00292293 0.00345437 -0.01 -0.00292293 0.00345437 0 -0.00265721 0.00345437 -0.01 -0.00265721 0.00345437 0
          -0.00239148 0.00345437 -0.01 -0.00239148 0.00345437 0 -0.00212576 0.00345437 -0.01 -0.00212576 0.00345437 0
          -0.00186004 0.00345437 -0.01 -0.00186004 0.00345437 0 -0.00159432 0.00345437 -0.01 -0.00159432 0.00345437 0
          -0.0013286 0.00345437 -0.01 -0.0013286 0.00345437 0 -0.00106288 0.00345437 -0.01 -0.00106288 0.00345437 0
          -0.000797161 0.00345437 -0.01 -0.000797161 0.00345437 0 -0.000531441 0.00345437 -0.01 -0.000531441 0.00345437 0
          -0.000265721 0.00345437 -0.01 -0.000265721 0.00345437 0 -2.1684e-19 0.00345437 -0.01 -2.1684e-19 0.00345437 0
          -0.00531441 0.00372009 -0.01 -0.00504869 0.00372009 -0.01 -0.00531441 0.00372009 0 -0.00504869 0.00372009 0
          -0.00478297 0.00372009 -0.01 -0.00478297 0.00372009 0 -0.00451725 0.00372009 -0.01 -0.00451725 0.00372009 0
          -0.00425153 0.00372009 -0.01 -0.00425153 0.00372009 0 -0.00398581 0.00372009 -0.01 -0.00398581 0.00372009 0
          -0.00372009 0.00372009 -0.01 -0.00372009 0.00372009 0 -0.00345437 0.00372009 -0.01 -0.00345437 0.00372009 0
          -0.00318865 0.00372009 -0.01 -0.00318865 0.00372009 0 -0.00292293 0.00372009 -0.01 -0.00292293 0.00372009 0
          -0.00265721 0.00372009 -0.01 -0.00265721 0.00372009 0 -0.00239148 0.00372009 -0.01 -0.00239148 0.00372009 0
          -0.00212576 0.00372009 -0.01 -0.00212576 0.00372009 0 -0.00186004 0.00372009 -0.01 -0.00186004 0.00372009 0
          -0.00159432 0.00372009 -0.01 -0.00159432 0.00372009 0 -0.0013286 0.00372009 -0.01 -0.0013286 0.00372009 0
          -0.00106288 0.00372009 -0.01 -0.00106288 0.00372009 0 -0.000797161 0.00372009 -0.01 -0.000797161 0.00372009 0
          -0.000531441 0.00372009 -0.01 -0.000531441 0.00372009 0 -0.000265721 0.00372009 -0.01 -0.000265721 0.00372009 0
          -2.1684e-19 0.00372009 -0.01 -2.1684e-19 0.00372009 0 -0.00531441 0.00398581 -0.01 -0.00504869 0.00398581 -0.01
          -0.00531441 0.00398581 0 -0.00504869 0.00398581 0 -0.00478297 0.00398581 -0.01 -0.00478297 0.00398581 0
          -0.00451725 0.00398581 -0.01 -0.00451725 0.00398581 0 -0.00425153 0.00398581 -0.01 -0.00425153 0.00398581 0
          -0.00398581 0.00398581 -0.01 -0.00398581 0.00398581 0 -0.00372009 0.00398581 -0.01 -0.00372009 0.00398581 0
          -0.00345437 0.00398581 -0.01 -0.00345437 0.00398581 0 -0.00318865 0.00398581 -0.01 -0.00318865 0.00398581 0
          -0.00292293 0.00398581 -0.01 -0.00292293 0.00398581 0 -0.00265721 0.00398581 -0.01 -0.00265721 0.00398581 0
          -0.00239148 0.00398581 -0.01 -0.00239148 0.00398581 0 -0.00212576 0.00398581 -0.01 -0.00212576 0.00398581 0
          -0.00186004 0.00398581 -0.01 -0.00186004 0.00398581 0 -0.00159432 0.00398581 -0.01 -0.00159432 0.00398581 0
          -0.0013286 0.00398581 -0.01 -0.0013286 0.00398581 0 -0.00106288 0.00398581 -0.01 -0.00106288 0.00398581 0
          -0.000797161 0.00398581 -0.01 -0.000797161 0.00398581 0 -0.000531441 0.00398581 -0.01 -0.000531441 0.00398581 0
          -0.000265721 0.00398581 -0.01 -0.000265721 0.00398581 0 -2.1684e-19 0.00398581 -0.01 -2.1684e-19 0.00398581 0
          -0.00531441 0.00425153 -0.01 -0.00504869 0.00425153 -0.01 -0.00531441 0.00425153 0 -0.00504869 0.00425153 0
          -0.00478297 0.00425153 -0.01 -0.00478297 0.00425153 0 -0.00451725 0.00425153 -0.01 -0.00451725 0.00425153 0
          -0.00425153 0.00425153 -0.01 -0.00425153 0.00425153 0 -0.00398581 0.00425153 -0.01 -0.00398581 0.00425153 0
          -0.00372009 0.00425153 -0.01 -0.00372009 0.00425153 0 -0.00345437 0.00425153 -0.01 -0.00345437 0.00425153 0
          -0.00318865 0.00425153 -0.01 -0.00318865 0.00425153 0 -0.00292293 0.00425153 -0.01 -0.00292293 0.00425153 0
          -0.00265721 0.00425153 -0.01 -0.00265721 0.00425153 0 -0.00239148 0.00425153 -0.01 -0.00239148 0.00425153 0
          -0.00212576 0.00425153 -0.01 -0.00212576 0.00425153 0 -0.00186004 0.00425153 -0.01 -0.00186004 0.00425153 0
          -0.00159432 0.00425153 -0.01 -0.00159432 0.00425153 0 -0.0013286 0.00425153 -0.01 -0.0013286 0.00425153 0
          -0.00106288 0.00425153 -0.01 -0.00106288 0.00425153 0 -0.000797161 0.00425153 -0.01 -0.000797161 0.00425153 0
          -0.000531441 0.00425153 -0.01 -0.000531441 0.00425153 0 -0.000265721 0.00425153 -0.01 -0.000265721 0.00425153 0
          -2.1684e-19 0.00425153 -0.01 -2.1684e-19 0.00425153 0 -0.00531441 0.00451725 -0.01 -0.00504869 0.00451725 -0.01
          -0.00531441 0.00451725 0 -0.00504869 0.00451725 0 -0.00478297 0.00451725 -0.01 -0.00478297 0.00451725 0
          -0.00451725 0.00451725 -0.01 -0.00451725 0.00451725 0 -0.00425153 0.00451725 -0.01 -0.00425153 0.00451725 0
          -0.00398581 0.00451725 -0.01 -0.00398581 0.00451725 0 -0.00372009 0.00451725 -0.01 -0.00372009 0.00451725 0
          -0.00345437 0.00451725 -0.01 -0.00345437 0.00451725 0 -0.00318865 0.00451725 -0.01 -0.00318865 0.00451725 0
          -0.00292293 0.00451725 -0.01 -0.00292293 0.00451725 0 -0.00265721 0.00451725 -0.01 -0.00265721 0.00451725 0
          -0.00239148 0.00451725 -0.01 -0.00239148 0.00451725 0 -0.00212576 0.00451725 -0.01 -0.00212576 0.00451725 0
          -0.00186004 0.00451725 -0.01 -0.00186004 0.00451725 0 -0.00159432 0.00451725 -0.01 -0.00159432 0.00451725 0
          -0.0013286 0.00451725 -0.01 -0.0013286 0.00451725 0 -0.00106288 0.00451725 -0.01 -0.00106288 0.00451725 0
          -0.000797161 0.00451725 -0.01 -0.000797161 0.00451725 0 -0.000531441 0.00451725 -0.01 -0.000531441 0.00451725 0
          -0.000265721 0.00451725 -0.01 -0.000265721 0.00451725 0 -2.1684e-19 0.00451725 -0.01 -2.1684e-19 0.00451725 0
          -0.00531441 0.00478297 -0.01 -0.00504869 0.00478297 -0.01 -0.00531441 0.00478297 0 -0.00504869 0.00478297 0
          -0.00478297 0.00478297 -0.01 -0.00478297 0.00478297 0 -0.00451725 0.00478297 -0.01 -0.00451725 0.00478297 0
          -0.00425153 0.00478297 -0.01 -0.00425153 0.00478297 0 -0.00398581 0.00478297 -0.01 -0.00398581 0.00478297 0
          -0.00372009 0.00478297 -0.01 -0.00372009 0.00478297 0 -0.00345437 0.00478297 -0.01 -0.00345437 0.00478297 0
          -0.00318865 0.00478297 -0.01 -0.00318865 0.00478297 0 -0.00292293 0.00478297 -0.01 -0.00292293 0.00478297 0
          -0.00265721 0.00478297 -0.01 -0.00265721 0.00478297 0 -0.00239148 0.00478297 -0.01 -0.00239148 0.00478297 0
          -0.00212576 0.00478297 -0.01 -0.00212576 0.00478297 0 -0.00186004 0.00478297 -0.01 -0.00186004 0.00478297 0
          -0.00159432 0.00478297 -0.01 -0.00159432 0.00478297 0 -0.0013286 0.00478297 -0.01 -0.0013286 0.00478297 0
          -0.00106288 0.00478297 -0.01 -0.00106288 0.00478297 0 -0.000797161 0.00478297 -0.01 -0.000797161 0.00478297 0
          -0.000531441 0.00478297 -0.01 -0.000531441 0.00478297 0 -0.000265721 0.00478297 -0.01 -0.000265721 0.00478297 0
          -2.1684e-19 0.00478297 -0.01 -2.1684e-19 0.00478297 0 -0.00531441 0.00504869 -0.01 -0.00504869 0.00504869 -0.01
          -0.00531441 0.00504869 0 -0.00504869 0.00504869 0 -0.00478297 0.00504869 -0.01 -0.00478297 0.00504869 0
          -0.00451725 0.00504869 -0.01 -0.00451725 0.00504869 0 -0.00425153 0.00504869 -0.01 -0.00425153 0.00504869 0
          -0.00398581 0.00504869 -0.01 -0.00398581 0.00504869 0 -0.00372009 0.00504869 -0.01 -0.00372009 0.00504869 0
          -0.00345437 0.00504869 -0.01 -0.00345437 0.00504869 0 -0.00318865 0.00504869 -0.01 -0.00318865 0.00504869 0
          -0.00292293 0.00504869 -0.01 -0.00292293 0.00504869 0 -0.00265721 0.00504869 -0.01 -0.00265721 0.00504869 0
          -0.00239148 0.00504869 -0.01 -0.00239148 0.00504869 0 -0.00212576 0.00504869 -0.01 -0.00212576 0.00504869 0
          -0.00186004 0.00504869 -0.01 -0.00186004 0.00504869 0 -0.00159432 0.00504869 -0.01 -0.00159432 0.00504869 0
          -0.0013286 0.00504869 -0.01 -0.0013286 0.00504869 0 -0.00106288 0.00504869 -0.01 -0.00106288 0.00504869 0
          -0.000797161 0.00504869 -0.01 -0.000797161 0.00504869 0 -0.000531441 0.00504869 -0.01 -0.000531441 0.00504869 0
          -0.000265721 0.00504869 -0.01 -0.000265721 0.00504869 0 -2.1684e-19 0.00504869 -0.01 -2.1684e-19 0.00504869 0
          -0.00531441 0.00531441 -0.01 -0.00504869 0.00531441 -0.01 -0.00531441 0.00531441 0 -0.00504869 0.00531441 0
          -0.00478297 0.00531441 -0.01 -0.00478297 0.00531441 0 -0.00451725 0.00531441 -0.01 -0.00451725 0.00531441 0
          -0.00425153 0.00531441 -0.01 -0.00425153 0.00531441 0 -0.00398581 0.00531441 -0.01 -0.00398581 0.00531441 0
          -0.00372009 0.00531441 -0.01 -0.00372009 0.00531441 0 -0.00345437 0.00531441 -0.01 -0.00345437 0.00531441 0
          -0.00318865 0.00531441 -0.01 -0.00318865 0.00531441 0 -0.00292293 0.00531441 -0.01 -0.00292293 0.00531441 0
          -0.00265721 0.00531441 -0.01 -0.00265721 0.00531441 0 -0.00239148 0.00531441 -0.01 -0.00239148 0.00531441 0
          -0.00212576 0.00531441 -0.01 -0.00212576 0.00531441 0 -0.00186004 0.00531441 -0.01 -0.00186004 0.00531441 0
          -0.00159432 0.00531441 -0.01 -0.00159432 0.00531441 0 -0.0013286 0.00531441 -0.01 -0.0013286 0.00531441 0
          -0.00106288 0.00531441 -0.01 -0.00106288 0.00531441 0 -0.000797161 0.00531441 -0.01 -0.000797161 0.00531441 0
          -0.000531441 0.00531441 -0.01 -0.000531441 0.00531441 0 -0.000265721 0.00531441 -0.01 -0.000265721 0.00531441 0
          -2.1684e-19 0.00531441 -0.01 -2.1684e-19 0.00531441 0
        </DataArray>
      </Points>
      <Cells>
        <DataArray type="Int32" Name="connectivity" NumberOfComponents="1" format="ascii">
          0 1 3 2 4 5 7 6 1 8 9 3
          5 10 11 7 8 12 13 9 10 14 15 11
          12 16 17 13 14 18 19 15 16 20 21 17
          18 22 23 19 20 24 25 21 22 26 27 23
          24 28 29 25 26 30 31 27 28 32 33 29
          30 34 35 31 32 36 37 33 34 38 39 35
          36 40 41 37 38 42 43 39 40 44 45 41
          42 46 47 43 44 48 49 45 46 50 51 47
          48 52 53 49 50 54 55 51 52 56 57 53
          54 58 59 55 56 60 61 57 58 62 63 59
          60 64 65 61 62 66 67 63 64 68 69 65
          66 70 71 67 68 72 73 69 70 74 75 71
          72 76 77 73 74 78 79 75 76 80 81 77
          78 82 83 79 2 3 85 84 6 7 87 86
          3 9 88 85 7 11 89 87 9 13 90 88
          11 15 91 89 13 17 92 90 15 19 93 91
          17 21 94 92 19 23 95 93 21 25 96 94
          23 27 97 95 25 29 98 96 27 31 99 97
          29 33 100 98 31 35 101 99 33 37 102 100
          35 39 103 101 37 41 104 102 39 43 105 103
          41 45 106 104 43 47 107 105 45 49 108 106
          47 51 109 107 49 53 110 108 51 55 111 109
          53 57 112 110 55 59 113 111 57 61 114 112
          59 63 115 113 61 65 116 114 63 67 117 115
          65 69 118 116 67 71 119 117 69 73 120 118
          71 75 121 119 73 77 122 120 75 79 123 121
          77 81 124 122 79 83 125 123 84 85 127 126
          86 87 129 128 85 88 130 127 87 89 131 129
          88 90 132 130 89 91 133 131 90 92 134 132
          91 93 135 133 92 94 136 134 93 95 137 135
          94 96 138 136 95 97 139 137 96 98 140 138
          97 99 141 139 98 100 142 140 99 101 143 141
          100 102 144 142 101 103 145 143 102 104 146 144
          103 105 147 145 104 106 148 146 105 107 149 147
          106 108 150 148 107 109 151 149 108 110 152 150
          109 111 153 151 110 112 154 152 111 113 155 153
          112 114 156 154 113 115 157 155 114 116 158 156
          115 117 159 157 116 118 160 158 117 119 161 159
          118 120 162 160 119 121 163 161 120 122 164 162
          121 123 165 163 122 124 166 164 123 125 167 165
          126 127 169 168 128 129 171 170 127 130 172 169
          129 131 173 171 130 132 174 172 131 133 175 173
          132 134 176 174 133 135 177 175 134 136 178 176
          135 137 179 177 136 138 180 178 137 139 181 179
          138 140 182 180 139 141 183 181 140 142 184 182
          141 143 185 183 142 144 186 184 143 145 187 185
          144 146 188 186 145 147 189 187 146 148 190 188
          147 149 191 189 148 150 192 190 149 151 193 191
          150 152 194 192 151 153 195 193 152 154 196 194
          153 155 197 195 154 156 198 196 155 157 199 197
          156 158 200 198 157 159 201 199 158 160 202 200
          159 161 203 201 160 162 204 202 161 163 205 203
          162 164 206 204 163 165 207 205 164 166 208 206
          165 167 209 207 168 169 211 210 170 171 213 212
          169 172 214 211 171 173 215 213 172 174 216 214
          173 175 217 215 174 176 218 216 175 177 219 217
          176 178 220 218 177 179 221 219 178 180 222 220
          179 181 223 221 180 182 224 222 181 183 225 223
          182 184 226 224 183 185 227 225 184 186 228 226
          185 187 229 227 186 188 230 228 187 189 231 229