<?xml version="1.0"?>
<VTKFile type="UnstructuredGrid" version="0.1" byte_order="LittleEndian">
  <UnstructuredGrid>
    <Piece NumberOfCells="1710" NumberOfPoints="2200">
      <CellData Scalars="p (Pa)">
        <DataArray type="Float32" Name="p (Pa)" NumberOfComponents="1" format="ascii">
          97289.8 97435.7 97660.2 97903.9 98131.7 98326.8 98482.2 98595.3 98664.4 97431 97566.8 97778
          98010 98229.2 98418.7 98571 98682.5 98751.2 97644.1 97766.6 97960.3 98176.7 98384.4 98566.7
          98715.2 98825.5 98894.2 97874.9 97985.7 98163.6 98366 98563.8 98740.4 98886.9 98997.4 99067.2
          98090.7 98192.9 98359.4 98551.8 98743.2 98917.3 99064.3 99177.2 99249.9 98275.7 98372.5 98531.8
          98718.7 98907.7 99082.4 99232.6 99350.8 99429.1 98423.1 98516.9 98672.7 98857.8 99047.5 99225.6
          99382 99508.4 99595 98529.8 98622.4 98777.3 98962.9 99155.5 99339 99503.7 99640.5 99737.7
          98594.2 98686.6 98841.7 99029 99224.8 99414.1 99587.3 99734.8 99843.4 98614.4 98706.8 98862.4
          99050.7 99248.3 99440.7 99618.6 99772.8 99889.7 96922 97080.4 97322.5 97583.3 97825.4 98031.6
          98195.2 98313.8 98386.2 97074.4 97221.2 97448.2 97695.7 97928.1 98127.9 98287.9 98404.9 98476.8
          97302.7 97434.4 97641.3 97871 98090.4 98282.1 98438 98553.8 98625.9 97548.1 97666.4 97855.4
          98069.3 98277.5 98463.1 98617 98733.6 98807.8 97776.1 97884.5 98060.5 98263.2 98464.5 98647.8
          98803.4 98924.3 99003.4 97970.5 98072.7 98240.6 98437.3 98636.4 98821.6 98983.1 99112.6 99201.1
          98124.7 98223.5 98387.6 98582.6 98783.5 98974.9 99146.4 99289.8 99393.2 98236.1 98333.6 98496.7
          98692.9 98898.7 99098.9 99284.4 99446.7 99572.1 98303.1 98400.3 98564 98762.8 98974 99183.8
          99384.6 99569 99722.4 98324 98421.3 98585.5 98785.8 99000.1 99215.4 99425.9 99627 99806.4
          96442 96626.3 96904.3 97199.9 97471.2 97700 97880.1 98010.1 98089.2 96616.8 96786.6 97045.9
          97325.1 97584.2 97805 97980.7 98108.6 98187.1 96874.7 97025.6 97260.1 97517.3 97760.4 97971.3
          98141.9 98268.4 98347.4 97148.5 97282.7 97495 97732.6 97962 98165.5 98334.2 98462.6 98545
          97400.2 97522.1 97718 97942 98163.2 98364.5 98536.5 98672.5 98763.8 97612.9 97726.8 97912.8
          98129.4 98348.5 98553.9 98736.3 98887 98994.4 97780.5 97890.1 98071.3 98286.2 98508.9 98724.7
          98924.4 99098.7 99234 97900.9 98008.7 98188.9 98406.1 98636.8 98868.3 99091.7 99300.5 99479.4
          97972.9 98080.5 98261.5 98482.9 98723 98971.4 99223.1 99475.7 99714.4 97995 98102.7 98284.5
          98508.3 98754 99013 99286.1 99579.3 99882.8 95841.5 96067.2 96402.5 96753.5 97070.9 97335.1
          97541.1 97688.6 97778 96049.7 96257 96568.3 96897.9 97199.3 97452.9 97652.6 97797 97885.3
          96351.4 96534.2 96813.4 97114.4 97394.7 97634.9 97827.5 97969.4 98057.9 96667.1 96827.9 97077.9
          97353.3 97615.4 97845.4 98034.7 98178.4 98271 96953.7 97097.9 97326.2 97583.3 97834 98060.4
          98253.2 98406.2 98510.5 97193.3 97326.6 97541.2 97788 98035.2 98266 98471.6 98644.8 98772.7
          97380.4 97507.5 97715.1 97958.9 98210 98453.8 98683 98890.2 99060.5 97513.9 97638.2 97843.7
          98089.9 98351 98615.4 98879.3 99138.3 99380.2 97593.1 97716.7 97922.9 98174.1 98447.6 98736.9
          99044.2 99375.3 99724.5 97616.6 97740.1 97947.3 98201.6 98483 98790.1 99136.3 99550.9 100013
          95121.6 95406.6 95824 96254.1 96636.8 96950.9 97192.5 97363.8 97466.9 95371.4 95633.8 96020.9
          96423.1 96784.4 97083.5 97315.8 97482 97583 95727.1 95957.9 96303.2 96667.6 97000.3 97280.5
          97501.9 97663.1 97762.7 96095 96296.3 96602.5 96932.2 97239.6 97504.3 97718.8 97879.3 97981.5
          96425.5 96603.8 96880 97183.7 97473.8 97730.7 97945.6 98113 98224.6 96699.2 96861.6 97117.6
          97405.5 97687.7 97945.7 98170.5 98354.9 98486.5 96911 97063.8 97308.3 97589.2 97872.3 98140.6
          98385.6 98599.2 98765.6 97060.8 97208.5 97448.2 97729 98019.8 98306 98580.9 98837.5 99058.1
          97148.7 97294.4 97533.2 97817.5 98119.2 98426.9 98737.7 99049 99345.2 97173.3 97318.4 97557.5
          97844.5 98153.2 98475.3 98814.2 99177.5 99562.8 94322 94683.5 95207.9 95741 96208 96585.1
          96870.4 97070.4 97190.1 94611.2 94948.1 95436.7 95934.9 96373.7 96730.5 97002.5 97194.6 97310.2
          95016.1 95315 95751.7 96201.6 96602.7 96933.4 97189.6 97372.9 97484.7 95434.1 95694.6 96080.2
          96483.9 96850.4 97158.4 97402.3 97581.1 97692.3 95809 96037.7 96381.8 96749 97089.8 97383.2
          97622 97802.7 97919.4 96118.4 96323.8 96638.1 96980.7 97306.3 97594.7 97837.6 98029.1 98159.4
          96356.7 96546.6 96842.2 97170.9 97491.3 97784.1 98040.4 98252.8 98407.3 96523.8 96704.8 96990.1
          97313.7 97636.7 97941.4 98219.3 98462.4 98653.6 96620.3 96796.7 97077.9 97401.5 97731.3 98051.3
          98354.8 98635.5 98875.4 96644.4 96819.2 97099.3 97424.2 97759 98089.2 98411 98722.4 99011.7
          93565.8 94016.4 94664.4 95313.2 95872.4 96317.1 96650.9 96882.8 97020.5 93870.4 94299.2 94910.4
          95519.7 96045.1 96464.5 96781.3 97002.6 97134.5 94286.9 94675.2 95228.1 95781.9 96262.2 96649.5
          96944.8 97153.6 97279.3 94721.9 95064.2 95555.1 96052.8 96490.8 96848.4 97124.9 97323.2 97444.8
          95118.1 95418.7 95855.7 96305.9 96709.6 97046.4 97311.8 97506.3 97628.3 95449.1 95716.6 96111.9
          96527.1 96907.4 97232.2 97495.4 97694.5 97823.8 95705.3 95949.2 96315.6 96708 97075.7 97397.9
          97667.4 97879.1 98023.4 95884.5 96113.2 96461.7 96841.8 97205.7 97533 97815.9 98047.9 98215.5
          95985.4 96205.5 96544.7 96920 97285.7 97622.4 97922.2 98178.6 98376 96005.2 96221.7 96557.5
          96932 97300.6 97644.3 97956.1 98230.7 98454.1 93087.9 93633.1 94398.6 95147.2 95774.9 96262.7
          96622.3 96869.5 97015.7 93363.5 93892 94624.2 95334.7 95929.9 96393.5 96736.5 96973.3 97113.7
          93708.2 94199.3 94876.5 95534 96089.4 96525.3 96850.2 97076 97210.5 94073.7 94517.5 95130.7
          95731 96243.6 96652.2 96960.4 97176.7 97306.7 94420 94815.8 95369.6 95918.1 96392.6 96776.3
          97070.9 97281.2 97409.4 94722 95075.7 95578.4 96085.3 96532.2 96899.5 97186.5 97395.7 97526.4
          94962.9 95283.5 95747.1 96223.6 96652.1 97012.2 97300.2 97515.9 97655 95132.7 95429.9 95866.5
          96323.6 96742.8 97102.8 97398.2 97626.4 97779.5 95224.3 95506.8 95927.3 96374.2 96790.9 97155.8
          97462.2 97706.1 97877.1 95230.2 95505.7 95919.3 96363.2 96781.4 97151.5 97466.7 97722.5 97907.6
          93151.6 93754 94558 95315 95938 96418.8 96773 97017.2 97162.1 93367.9 93957.7 94736.3
          95464.4 96062.6 96524.6 96865.8 97101.7 97242 93551.1 94122 94872.5 95573 96149.1 96595.1
          96925.4 97154.2 97290.6 93712.4 94253.9 94971.5 95644.8 96201.1 96634 96955.9 97179.6 97313.2
          93876.4 94378.1 95051.6 95693.6 96231 96652.8 96968.7 97189.7 97322.4 94040.6 94501 95128.6
          95736.1 96252.6 96664.6 96977.2 97198.2 97332.4 94185 94607.2 95194.4 95774 96274.8 96679.5
          96991.5 97216.1 97354.9 94290 94681 95235.5 95793.7 96285.2 96689.9 97007.5 97240.8 97388.6
          94336.5 94704.9 95236.5 95781.5 96269.8 96678.7 97005.3 97250.1 97409.3 94307.6 94663.2 95183.2
          95723.7 96213.9 96629.1 96964.2 97218.7 97387.2 93648.6 94228.4 94980.2 95678.1 96252.2 96698.9
          97031.8 97264.2 97403.8 93819.2 94385.8 95116.6 95793 96349.4 96782.8 97106.6 97333.1 97469.5
          93874.1 94438 95162.2 95830.3 96378.7 96805.5 97124.1 97347 97481.1 93829.7 94397.8 95126.4
          95796.9 96346.1 96772.5 97090.2 97312 97445.1 93724.1 94295.2 95030.9 95709.5 96265.4 96696.6
          97017.4 97240.8 97374.7 93608 94168.4 94902.8 95588.4 96153.1 96592.4 96919.6 97147.8 97284.5
          93521.8 94056.8 94773.7 95456 96026.5 96475.2 96811.4 97046.9 97188.8 93453.5 93958.2 94652.8
          95328.5 95902.3 96358.8 96704.9 96950 97099.3 93380.1 93855.1 94526.4 95195.5 95775.3 96243.5
          96602.6 96859.9 97018.7 93274.3 93726.6 94380.8 95047.5 95635.6 96116.6 96488.9 96758.1 96925.8
          94308.8 94817.6 95477.6 96095.5 96611.6 97020.5 97331.2 97552.4 97687.6 94446.2 94941.7 95584.1
          96185.9 96689.3 97089.1 97393.7 97611.2 97744.6 94429.1 94930.2 95576.8 96180 96682.8 97081
          97383.7 97599.3 97731.3 94268.9 94792.4 95463.1 96084 96597.9 97002.2 97307.6 97523.9 97655.5
          93986.9 94545.2 95255.8 95908.7 96444.6 96862.8 97176.3 97396.5 97529.6 93614.9 94210.6 94970
          95665.5 96233.1 96673 97000.2 97228.5 97365.5 93205.5 93825.2 94628.6 95370.1 95975.8 96444
          96790.6 97031.3 97175.2 92832.2 93445.6 94268 95045.8 95690 96190.2 96560.8 96817.8 96971.4
          92523.2 93108.1 93926 94725.3 95400.6 95931.2 96326.8 96602.3 96767.6 92267.1 92814.3 93613.4
          94424.8 95128 95688.4 96109.1 96403.3 96580.3 94940.9 95372 95942.4 96488.7 96955.9 97335.2
          97630.6 97846.2 97981.3 95053.5 95472.7 96028.9 96563.1 97021.3 97394.4 97686.2 97900 98034.6
          95004.5 95431.7 95995.6 96534.6 96994.9 97368.5 97659.4 97871.8 98004.9 94800.7 95255 95848
          96408.6 96882.6 97263.7 97557.8 97770.5 97902.4 94447 94947.1 95590.8 96190.7 96691.2 97088.3
          97391.1 97607.4 97740 93948.2 94510.4 95225.7 95883.5 96424.8 96848.5 97167.1 97391.9 97528.1
          93326.8 93956 94757.2 95490.2 96087.5 96549.5 96892.8 97132.1 97275.6 92644.2 93320.6 94203.6
          95021 95687.5 96199.9 96577.2 96837.8 96992.9 92008.4 92681.6 93611.1 94504.8 95246.1 95817.9
          96237.5 96525.7 96696.3 91514.3 92138.4 93064 94005.6 94812.1 95443.3 95908.6 96227.6 96416
          95464 95832.2 96333.1 96826.4 97260 97621.7 97911.5 98129.4 98270.4 95558.4 95916.9 96406.7
          96890.9 97318.2 97676.3 97964.6 98182.7 98325 95498.2 95864.3 96361.8 96851.3 97281.2 97639.7
          97927 98143 98282.8 95287.5 95678.7 96203.3 96712.9 97155.1 97519.8 97808.4 98022.6 98159.2
          94922.3 95358.1 95931.7 96478.9 96945.8 97324.6 97619.8 97835.2 97970.2 94391 94893.5 95541.6
          96147.5 96654.8 97058.9 97368.1 97589.9 97726.5 93687.5 94275.8 95024.9 95714.1 96281.1 96724.6
          97058 97293.1 97435.6 92838.6 93514.1 94381 95177 95825.4 96325.4 96695.4 96952.3 97106
          91943.1 92666.3 93637.9 94552.8 95302 95876 96295.9 96583.8 96754.2 91175.9 91870.5 92889.6
          93907.9 94763.7 95422.4 95901.5 96227 96418.1 95861.6 96186.5 96640.6 97100.4 97515.9 97872.5
          98167.2 98396.7 98551.5 95943.2 96260.5 96706.1 97159.4 97571 97926.2 98221.8 98454.1 98613
          95880.5 96204.2 96656.4 97114.1 97527.5 97882.3 98175.5 98403.8 98557.9 95676.4 96021.1 96496.2
          96970.5 97393.2 97751.1 98042.4 98265.2 98412.1 95323.5 95707.1 96225.1 96731.8 97174.8 97542.9
          97836.7 98056.7 98198.2 94803 95248.5 95835.1 96395.1 96873.7 97262.7 97566.5 97788.9 97928.7
          94092.5 94626.3 95312.8 95952.9 96487.3 96911.8 97236.1 97468.3 97611.2 93188.7 93829.8 94647
          95397.9 96013.3 96492.2 96850.3 97101.5 97253.3 92157.2 92891.5 93850.7 94739.1 95462.3 96016.9
          96424.2 96704.8 96871.8 91188.7 91946.3 93010.9 94039.8 94887.7 95534.2 96002.8 96321.1 96508.1
          96141.1 96439.7 96866.9 97310.4 97721.9 98085.4 98395.7 98647.2 98826.1 96214.3 96507 96927.8
          97367 97776.8 98141.5 98455.8 98714.2 98902.3 96152 96449.8 96875.9 97318.2 97728.4 98090.8
          98400.2 98650.9 98829.2 95956.8 96271.8 96716.2 97171 97586.7 97948.1 98250.8 98490.4 98655.1
          95620.7 95968.6 96449.1 96930.3 97361 97727.4 98027.3 98258.3 98412 95123 95525.6 96066.6
          96593.9 97053.9 97435.6 97740.1 97968.3 98115.4 94434 94919.9 95553.8 96154 96663.4 97074.8
          97394.4 97627.5 97773.7 93531.6 94130.8 94895.5 95602.2 96186.7 96646.8 96995.1 97242.8 97394.3
          92448.3 93170.8 94095.9 94944.1 95633.9 96165 96557.7 96830.6 96994.2 91356.8 92157.3 93233
          94240.6 95058.1 95678.6 96128.7 96435.5 96616.6 96313.3 96598.8 97014.8 97456.2 97875.9 98257.3
          98594.4 98879.9 99096.1 96381.2 96662.2 97073.8 97512.9 97933.4 98319.2 98664.9 98964.2 99199.9
          96319.8 96604.8 97020.1 97460.8 97879.6 98260.3 98596.8 98881.8 99097.7 96131.7 96430.5 96860.2
          97309.1 97728.9 98103.3 98426.5 98691.9 98883.9 95809.4 96135.9 96595.5 97065 97494.2 97867.6
          98181.3 98430.5 98602.9 95332 95706.7 96219.2 96728 97180.1 97562.7 97874.6 98114.3 98273.5
          94667.4 95119.2 95716.8 96291 96785.6 97191.7 97512.7 97751.4 97904.4 93783.5 94347.8 95071.8
          95745.9 96309 96757.3 97101.1 97349 97503.1 92689.5 93393.2 94284.5 95097.9 95760.4 96273.4
          96655.8 96923.9 97086.3 91532 92355.8 93426 94406.1 95193.5 95790.1 96224.2 96521.6 96698
          96384.7 96666.5 97083.1 97533.3 97971.1 98380.5 98755.5 99088.6 99359.3 96449.7 96728.2 97142
          97592.1 98033.8 98452.1 98843.2 99202.2 99510.9 96388.8 96670.3 97086.4 97536.1 97973.4 98382.2
          98756.8 99089.6 99360 96204.6 96497.3 96924.1 97377.9 97810.9 98206.8 98559.1 98860 99090.6
          95890.4 96206.9 96658.6 97127.6 97564.1 97952.2 98286.7 98561.2 98760.1 95425.7 95785.6 96284.2
          96786.5 97240 97630.7 97956.2 98212.9 98389.5 94777.6 95209.5 95787.1 96348.7 96838.7 97246.7
          97574.8 97823.8 97987.4 93908.7 94451 95150.5 95806.4 96359 96803.4 97148.5 97401 97560.5
          92814.4 93504.1 94373.1 95165.2 95811.8 96315.3 96693.4 96961.1 97124.9 91620.9 92457.8 93521.9
          94483.1 95251 95832.8 96257.5 96550 96724.5 96355.1 96639.1 97063.4 97529.1 97991.6 98436.4
          98859.3 99254.3 99599.3 96419.1 96700.6 97123.6 97591.6 98061.7 98522.2 98973.3 99415 99826.3
          96357.9 96641.7 97065.6 97530.9 97993 98437.4 98860.1 99254.8 99599.7 96174.7 96467.6 96899.2
          97364.5 97816.6 98239.5 98627.6 98973.1 99255.4 95863 96177.1 96629.8 97105.7 97555.4 97962.8
          98323 98628.8 98861.9 95402.6 95757.1 96252.9 96757.4 97218.7 97622.3 97965.3 98243.2 98441.7
          94759.9 95183.8 95754.8 96314.5 96807.5 97222.9 97562 97824.5 98001.6 93894.5 94427.9 95118.6
          95769.3 96320.8 96768 97118.7 97378.9 97546.1 92794.2 93479.9 94342 95127.4 95769.9 96272
          96651.5 96922.4 97089.8 91574.7 92423.4 93490.3 94447 95208.8 95786 96208.4 96500.5 96675.6
          96217.4 96505 96937.8 97418.4 97903.9 98382.9 98855.9 99322.2 99762.9 96281.4 96567 96999.6
          97484.5 97981.9 98485.3 99004.4 99552 100134 96219.6 96507 96939.5 97419.8 97905 98383.7
          98856.4 99322.5 99763 96035.5 96330.9 96769 97245.9 97715.6 98163.7 98586.6 98979.3 99322.8
          95722.5 96037.9 96495 96979.3 97441.7 97867 98251 98587.4 98857.6 95260.5 95615.1 96113.4
          96623.7 97093.9 97509.8 97868.8 98166.3 98386.7 94614.7 95038.2 95610.8 96174.2 96673.2 97096.9
          97446.5 97721.4 97911.2 93743 94277 94969.5 95623.2 96178.9 96631.4 96988.8 97256.5 97430.9
          92630 93319.9 94186.5 94975.8 95621.7 96127.4 96510.9 96786.1 96957.3 91389.7 92249.6 93327.1
          94290.4 95056.1 95635.9 96060.6 96354.9 96532
        </DataArray>
        <DataArray type="Float32" Name="saturation" NumberOfComponents="1" format="ascii">
          0.341604 0.346237 0.353649 0.362072 0.37027 0.377506 0.383379 0.387689 0.390333 0.346087 0.350524 0.357674
          0.365855 0.373865 0.380969 0.38676 0.391026 0.393652 0.353108 0.357281 0.364074 0.371923 0.379673 0.386597
          0.392278 0.396487 0.399092 0.361049 0.36498 0.371442 0.37898 0.386486 0.393241 0.398816 0.40297 0.405557
          0.368774 0.372522 0.37873 0.38603 0.393348 0.399967 0.405449 0.409542 0.412102 0.375596 0.379223 0.385267
          0.392411 0.399602 0.406116 0.4115 0.415522 0.418048 0.381135 0.384697 0.390651 0.397712 0.404829 0.411256
          0.416545 0.420467 0.422915 0.385192 0.388726 0.394648 0.401683 0.408767 0.415132 0.420329 0.424108 0.426398
          0.387649 0.391181 0.397104 0.404146 0.411228 0.417575 0.422706 0.426335 0.428406 0.388421 0.391956 0.397889
          0.404947 0.412047 0.418412 0.423542 0.427126 0.429086 0.330558 0.335204 0.342629 0.351073 0.359319 0.366632
          0.372606 0.37702 0.379743 0.335027 0.339477 0.346643 0.354854 0.362927 0.370131 0.376049 0.380446 0.383172
          0.342008 0.346196 0.353014 0.360914 0.368762 0.375835 0.381702 0.386103 0.388859 0.349906 0.353858 0.360365
          0.367994 0.375661 0.382651 0.388519 0.392979 0.39581 0.357608 0.361389 0.367677 0.37513 0.382707 0.389697
          0.395642 0.40023 0.403196 0.364438 0.368119 0.374289 0.381674 0.389259 0.396338 0.402438 0.407218 0.41039
          0.370015 0.373654 0.379794 0.387203 0.394885 0.40213 0.40844 0.413473 0.416907 0.374121 0.37776 0.383929
          0.391424 0.399262 0.406718 0.41329 0.4186 0.42229 0.376619 0.380276 0.386496 0.394094 0.402098 0.409778
          0.416627 0.422203 0.426063 0.377401 0.381068 0.387317 0.394973 0.403071 0.410894 0.417948 0.423762 0.427767
          0.317462 0.322319 0.330048 0.338821 0.347387 0.354998 0.361233 0.365856 0.368719 0.322063 0.326717 0.334178
          0.342711 0.351102 0.358609 0.364801 0.369425 0.372307 0.329202 0.33358 0.340679 0.348893 0.357066 0.364465
          0.370645 0.375323 0.37828 0.337253 0.341382 0.348161 0.356112 0.364135 0.371512 0.377785 0.382633 0.385771
          0.345097 0.349049 0.355615 0.363421 0.371425 0.378922 0.385446 0.390642 0.394134 0.35206 0.355915 0.362386
          0.370187 0.378322 0.386108 0.393081 0.398819 0.402859 0.357758 0.361584 0.368066 0.375986 0.384393 0.392641
          0.400232 0.406711 0.411549 0.361964 0.365807 0.372372 0.380494 0.389275 0.398111 0.406453 0.413839 0.4196
          0.364524 0.368402 0.375067 0.383403 0.392574 0.401998 0.411165 0.419489 0.425884 0.365314 0.369209 0.375924
          0.384371 0.393758 0.403553 0.413347 0.422489 0.428994 0.30298 0.308191 0.316446 0.325797 0.334921 0.343028
          0.349676 0.354611 0.357673 0.307776 0.312785 0.320768 0.329867 0.338802 0.346795 0.353393 0.35833 0.361414
          0.315146 0.319866 0.327467 0.336224 0.344921 0.352797 0.35939 0.364399 0.367582 0.323424 0.327875 0.33513
          0.343602 0.352143 0.360014 0.366742 0.371986 0.37542 0.331475 0.335728 0.342748 0.351072 0.359617 0.367671
          0.374758 0.380497 0.384454 0.338619 0.342759 0.349679 0.358018 0.366761 0.375233 0.382974 0.389582 0.394472
          0.344466 0.348572 0.355513 0.364022 0.373154 0.382298 0.391044 0.398943 0.405311 0.348781 0.352908 0.359957
          0.368744 0.378414 0.388457 0.39853 0.408147 0.416486 0.351401 0.355567 0.362745 0.371826 0.382064 0.393106
          0.40471 0.416326 0.42611 0.352185 0.356369 0.36361 0.372841 0.383407 0.395136 0.408076 0.421696 0.43
          0.28801 0.293653 0.302586 0.312713 0.322603 0.331392 0.338592 0.343935 0.347249 0.292939 0.298413 0.307099
          0.316974 0.326654 0.335298 0.34242 0.34774 0.351062 0.300437 0.305635 0.313934 0.323438 0.332834 0.341314
          0.348389 0.353749 0.357146 0.308851 0.313762 0.321681 0.330853 0.340042 0.348468 0.355641 0.361206 0.364831
          0.317035 0.321715 0.329353 0.338325 0.347473 0.356046 0.363551 0.369585 0.373696 0.324299 0.328831 0.336321
          0.345266 0.35458 0.363553 0.371696 0.378561 0.383541 0.330243 0.33471 0.342184 0.351269 0.360957 0.370595
          0.379718 0.38784 0.394201 0.334622 0.339086 0.346642 0.355988 0.366206 0.376727 0.387142 0.396944 0.405221
          0.33726 0.341748 0.349415 0.359042 0.369813 0.381278 0.393136 0.404887 0.415338 0.338007 0.342503 0.350218
          0.359984 0.371058 0.383116 0.396054 0.409555 0.422029 0.273886 0.279981 0.289682 0.300742 0.311579 0.321214
          0.32908 0.334906 0.338519 0.278725 0.28474 0.294271 0.305105 0.315712 0.32516 0.332899 0.338657 0.342243
          0.286009 0.291802 0.300979 0.311423 0.321685 0.330887 0.338505 0.344225 0.347826 0.294218 0.299728 0.3085
          0.318548 0.328512 0.337554 0.345166 0.350998 0.354738 0.302251 0.307493 0.315916 0.325672 0.335485 0.344554
          0.352366 0.358527 0.362621 0.309411 0.31445 0.322639 0.332261 0.342121 0.351454 0.359744 0.366541 0.371288
          0.31528 0.320195 0.328279 0.337935 0.348043 0.357884 0.36695 0.374741 0.380537 0.319593 0.324452 0.332536
          0.342352 0.352859 0.363399 0.373497 0.382628 0.38992 0.322158 0.326999 0.335129 0.345138 0.356068 0.367343
          0.378559 0.389226 0.398381 0.322809 0.327632 0.335771 0.345867 0.357018 0.368718 0.380677 0.39255 0.403504
          0.262472 0.26907 0.279647 0.291766 0.303678 0.314281 0.322985 0.329434 0.333427 0.266869 0.273517 0.284046
          0.295993 0.307667 0.318044 0.32657 0.332901 0.33683 0.273318 0.279835 0.290078 0.301648 0.312915 0.322947
          0.331218 0.337407 0.341275 0.280656 0.286915 0.296738 0.30785 0.318726 0.328455 0.33654 0.342652 0.346533
          0.287944 0.293901 0.303299 0.314001 0.324586 0.334192 0.342292 0.348532 0.352575 0.294526 0.300207 0.309255
          0.319678 0.330139 0.339814 0.348176 0.354811 0.359262 0.299961 0.305433 0.314246 0.324542 0.335065 0.345024
          0.353892 0.361196 0.366336 0.303952 0.309285 0.31797 0.328269 0.338998 0.34941 0.358987 0.367218 0.373356
          0.306272 0.311518 0.320142 0.3305 0.341477 0.352377 0.362718 0.371993 0.379356 0.306733 0.311915 0.320481
          0.330848 0.341944 0.353114 0.363922 0.373922 0.382309 0.25606 0.263421 0.27514 0.288503 0.301492 0.312927
          0.322212 0.329056 0.333286 0.259688 0.26719 0.27895 0.292197 0.30499 0.316216 0.325327 0.332045 0.336201
          0.264496 0.271917 0.283427 0.296294 0.308717 0.319632 0.328507 0.335072 0.339146 0.26995 0.277127 0.288186
          0.300523 0.312455 0.32302 0.33167 0.33811 0.342134 0.275494 0.282329 0.292902 0.304717 0.316192 0.326429
          0.334923 0.341335 0.345393 0.280657 0.287133 0.297229 0.308621 0.319812 0.329912 0.338411 0.344953 0.349191
          0.285015 0.291173 0.300877 0.311963 0.323017 0.333183 0.341931 0.348848 0.353474 0.288224 0.294131 0.303544
          0.314446 0.325498 0.335874 0.345033 0.352511 0.357725 0.290004 0.295723 0.304928 0.315725 0.326838 0.337474
          0.347094 0.355207 0.361127 0.29012 0.2957 0.304746 0.315446 0.326571 0.337345 0.347241 0.355766 0.362204
          0.256884 0.265158 0.277814 0.291803 0.305175 0.316863 0.326337 0.33333 0.337667 0.259748 0.268177 0.28091
          0.294843 0.308081 0.319614 0.32895 0.335842 0.340118 0.262267 0.270701 0.283354 0.297117 0.310148 0.321483
          0.330655 0.337427 0.341629 0.264556 0.272787 0.285174 0.298649 0.311412 0.322528 0.331537 0.338199 0.342338
          0.266958 0.274802 0.286677 0.299707 0.312143 0.323036 0.331912 0.338508 0.342626 0.269441 0.276848 0.288146
          0.300636 0.312677 0.323355 0.332158 0.33877 0.342941 0.271691 0.278658 0.289419 0.301472 0.313226 0.323762
          0.332577 0.339317 0.343655 0.273367 0.279937 0.290223 0.301909 0.313484 0.324046 0.333047 0.340081 0.344726
          0.274122 0.280356 0.290244 0.301639 0.313103 0.323741 0.33298 0.340367 0.345388 0.273652 0.279626 0.289201
          0.300363 0.311724 0.322395 0.331781 0.339399 0.344682 0.263642 0.27238 0.285337 0.299368 0.312668 0.324291
          0.333761 0.340806 0.345212 0.266111 0.274929 0.287914 0.301894 0.315096 0.326612 0.335988 0.342966 0.347333
          0.266924 0.275793 0.288794 0.302727 0.315839 0.327246 0.336516 0.343405 0.34771 0.266266 0.275127 0.288102
          0.301981 0.315011 0.326324 0.335498 0.342299 0.346542 0.264726 0.273452 0.286286 0.300053 0.312994 0.324229
          0.333335 0.340081 0.344283 0.263066 0.271429 0.283908 0.297442 0.310245 0.321412 0.330491 0.337231 0.341438
          0.261857 0.26969 0.281574 0.294669 0.307231 0.31832 0.32741 0.334208 0.33848 0.260914 0.268185 0.279446
          0.292072 0.304357 0.315335 0.324455 0.331367 0.33577 0.259913 0.266642 0.277277 0.289441 0.301501 0.312452
          0.321683 0.328782 0.333375 0.258495 0.264762 0.274847 0.2866 0.298452 0.309366 0.318679 0.325923 0.330669
          0.273672 0.282361 0.295116 0.308864 0.321925 0.333427 0.342904 0.350049 0.354579 0.27593 0.284622 0.297351
          0.311042 0.32403 0.335464 0.344889 0.352003 0.356522 0.275645 0.28441 0.297196 0.310897 0.323852 0.335222
          0.34457 0.351607 0.356066 0.273027 0.281909 0.294816 0.30859 0.321557 0.33289 0.342163 0.349111 0.353491
          0.26862 0.277595 0.290625 0.304503 0.317528 0.328864 0.338098 0.34498 0.349296 0.263164 0.272096 0.285146
          0.299097 0.312197 0.323583 0.332831 0.339699 0.34399 0.257587 0.2662 0.279025 0.29291 0.306049 0.317511
          0.32683 0.333748 0.338065 0.252853 0.260806 0.273014 0.286567 0.299628 0.311145 0.320568 0.327591 0.331989
          0.249163 0.256321 0.2677 0.280716 0.293531 0.305018 0.314526 0.321676 0.326188 0.246251 0.252633 0.263142
          0.275573 0.288134 0.299593 0.309187 0.316465 0.321088 0.284609 0.29295 0.305277 0.318673 0.33154 0.34303
          0.352654 0.360044 0.364824 0.286712 0.295013 0.307288 0.32063 0.333451 0.344913 0.354529 0.361933 0.366738
          0.28579 0.294167 0.306509 0.319875 0.332677 0.344084 0.353623 0.360941 0.365669 0.282058 0.290609 0.303126
          0.316601 0.32943 0.34079 0.350227 0.357413 0.362019 0.275942 0.284723 0.297493 0.311157 0.324079 0.335442
          0.344807 0.351877 0.356367 0.268034 0.277006 0.29003 0.303929 0.317017 0.328458 0.33782 0.344832 0.349249
          0.259195 0.268151 0.281281 0.295378 0.308673 0.320271 0.32972 0.336756 0.341161 0.250584 0.259113 0.271985
          0.2861 0.299573 0.311382 0.321006 0.328155 0.332616 0.243433 0.25103 0.26311 0.276912 0.290434 0.30245
          0.312305 0.319641 0.324221 0.238371 0.244834 0.255755 0.268905 0.282261 0.294407 0.304501 0.312061 0.316792
          0.294834 0.302771 0.314685 0.327834 0.340674 0.352354 0.36234 0.370187 0.375398 0.296806 0.304691 0.316552
          0.329665 0.342495 0.354194 0.364226 0.372145 0.377438 0.295543 0.303494 0.315411 0.328538 0.341335 0.352961
          0.362889 0.370685 0.37586 0.291253 0.299382 0.311465 0.324674 0.337455 0.348974 0.358727 0.366309 0.371278
          0.284266 0.292669 0.305031 0.318416 0.331247 0.342698 0.352291 0.35966 0.364426 0.275015 0.283736 0.296452
          0.310111 0.323091 0.334564 0.344074 0.351293 0.355903 0.264198 0.273139 0.286174 0.300153 0.313383 0.324997
          0.334538 0.341707 0.346235 0.252931 0.261751 0.27485 0.28908 0.302617 0.314491 0.324195 0.331434 0.33597
          0.242741 0.250848 0.26349 0.277725 0.291541 0.30376 0.313753 0.321182 0.325817 0.235125 0.24198 0.25356
          0.267429 0.281396 0.293977 0.304338 0.312046 0.316846 0.303434 0.311055 0.322705 0.335803 0.348847 0.360967
          0.371575 0.380138 0.386018 0.305296 0.312872 0.324488 0.337583 0.350663 0.362861 0.373589 0.38231 0.388365
          0.303862 0.311487 0.323134 0.336215 0.349229 0.361312 0.37188 0.380407 0.38626 0.299332 0.307105 0.318868
          0.331964 0.344875 0.356748 0.367023 0.375205 0.380721 0.291971 0.300001 0.311999 0.325195 0.338054 0.349736
          0.359711 0.367537 0.372717 0.282098 0.290481 0.302836 0.316257 0.329175 0.340759 0.350515 0.35805 0.36295
          0.270242 0.278986 0.291758 0.305517 0.318635 0.330266 0.339933 0.347292 0.352003 0.257367 0.266268 0.279346
          0.293476 0.306922 0.318764 0.328509 0.335836 0.340467 0.245039 0.253583 0.266577 0.280959 0.294799 0.307007
          0.317002 0.324454 0.329121 0.235245 0.242775 0.255079 0.269428 0.283631 0.296298 0.306677 0.314383 0.319181
          0.309957 0.317401 0.32898 0.34225 0.355746 0.36858 0.380102 0.389676 0.396508 0.311733 0.319151 0.330726
          0.344038 0.357633 0.370628 0.382375 0.392237 0.399401 0.310218 0.317663 0.329237 0.342493 0.355968 0.368775
          0.380268 0.389816 0.396628 0.305608 0.313151 0.324767 0.337938 0.351187 0.363637 0.374668 0.383689 0.389977
          0.298132 0.305881 0.317644 0.330799 0.343847 0.355933 0.366476 0.374947 0.380714 0.288038 0.296116 0.308176
          0.321451 0.334417 0.346235 0.35637 0.36436 0.369675 0.275727 0.284222 0.29671 0.310268 0.323322 0.335037
          0.344912 0.35255 0.357524 0.261994 0.270838 0.283773 0.297736 0.311061 0.322874 0.332683 0.34014 0.344908
          0.248299 0.257132 0.270295 0.284668 0.298414 0.310533 0.320487 0.327952 0.332656 0.23684 0.24504 0.257949
          0.272574 0.2868 0.299379 0.309658 0.317294 0.322059 0.314187 0.321581 0.333261 0.346903 0.361084 0.374909
          0.387655 0.398551 0.406617 0.315901 0.323291 0.335007 0.34875 0.363116 0.37722 0.390351 0.40173 0.410349
          0.31435 0.321743 0.333418 0.347048 0.361215 0.37502 0.387746 0.398623 0.406674 0.30973 0.317165 0.328789
          0.342209 0.355986 0.369232 0.381266 0.391385 0.398702 0.302258 0.309831 0.321493 0.334747 0.348135 0.360793
          0.372093 0.381416 0.38798 0.292142 0.299992 0.311854 0.32509 0.338214 0.350388 0.361039 0.369633 0.375513
          0.2797 0.287964 0.300212 0.31363 0.32669 0.338568 0.348741 0.356757 0.36209 0.265588 0.274307 0.287059
          0.300851 0.31408 0.325902 0.335824 0.343468 0.348427 0.251125 0.260091 0.273279 0.287557 0.301171 0.313192
          0.323116 0.330614 0.335382 0.238546 0.247246 0.260538 0.275263 0.2894 0.301828 0.311976 0.319533 0.324267
          0.315991 0.323408 0.335287 0.34942 0.36446 0.379526 0.393817 0.406341 0.415802 0.31766 0.325098 0.337058
          0.351368 0.366711 0.382236 0.397159 0.41043 0.420539 0.316095 0.323511 0.335385 0.34951 0.364539 0.379591
          0.393867 0.406377 0.415827 0.311498 0.318898 0.33062 0.344385 0.358815 0.373033 0.386306 0.397798 0.406415
          0.304086 0.311553 0.323193 0.336622 0.350437 0.363784 0.376004 0.386389 0.393991 0.294046 0.301728 0.313461
          0.326715 0.340056 0.352657 0.363926 0.373261 0.379866 0.281644 0.289714 0.301763 0.315078 0.32818 0.340262
          0.35079 0.359262 0.365043 0.26744 0.27601 0.288567 0.302194 0.315338 0.327188 0.337253 0.345121 0.350316
          0.252635 0.261612 0.27472 0.28885 0.302314 0.314237 0.324141 0.33169 0.33654 0.23943 0.248408 0.26186