<?xml version="1.0"?>
<VTKFile type="UnstructuredGrid" version="0.1" byte_order="LittleEndian">
  <UnstructuredGrid>
    <Piece NumberOfCells="260" NumberOfPoints="588">
      <CellData Scalars="p (Pa)">
        <DataArray type="Float32" Name="p (Pa)" NumberOfComponents="1" format="ascii">
          -1.10826e+06 -1.10856e+06 -1.10916e+06 -1.11007e+06 -1.11129e+06 -1.11282e+06 -1.11468e+06 -1.11688e+06 -1.11942e+06 -1.12231e+06 -1.12557e+06 -1.12919e+06
          -1.13317e+06 -1.13747e+06 -1.14205e+06 -1.1468e+06 -1.15152e+06 -1.15596e+06 -1.15972e+06 -1.16233e+06 -1.10876e+06 -1.10908e+06 -1.10972e+06 -1.11068e+06
          -1.11198e+06 -1.11361e+06 -1.11561e+06 -1.11797e+06 -1.12073e+06 -1.1239e+06 -1.1275e+06 -1.13156e+06 -1.13609e+06 -1.14109e+06 -1.14654e+06 -1.15235e+06
          -1.15836e+06 -1.16423e+06 -1.16943e+06 -1.1732e+06 -1.10918e+06 -1.10951e+06 -1.11018e+06 -1.1112e+06 -1.11256e+06 -1.11429e+06 -1.11641e+06 -1.11893e+06
          -1.12189e+06 -1.12532e+06 -1.12925e+06 -1.13375e+06 -1.13884e+06 -1.14458e+06 -1.15101e+06 -1.1581e+06 -1.16574e+06 -1.17362e+06 -1.18107e+06 -1.18686e+06
          -1.1095e+06 -1.10985e+06 -1.11054e+06 -1.1116e+06 -1.11302e+06 -1.11483e+06 -1.11705e+06 -1.11971e+06 -1.12284e+06 -1.1265e+06 -1.13074e+06 -1.13563e+06
          -1.14126e+06 -1.14774e+06 -1.15519e+06 -1.16371e+06 -1.17336e+06 -1.18399e+06 -1.19497e+06 -1.20455e+06 -1.10971e+06 -1.11007e+06 -1.11078e+06 -1.11186e+06
          -1.11333e+06 -1.1152e+06 -1.1175e+06 -1.12026e+06 -1.12353e+06 -1.12737e+06 -1.13185e+06 -1.13707e+06 -1.14316e+06 -1.15029e+06 -1.15868e+06 -1.16865e+06
          -1.18054e+06 -1.1947e+06 -1.21113e+06 -1.22818e+06 -1.1098e+06 -1.11016e+06 -1.11089e+06 -1.11199e+06 -1.11348e+06 -1.11539e+06 -1.11774e+06 -1.12057e+06
          -1.12392e+06 -1.12788e+06 -1.13251e+06 -1.13795e+06 -1.14435e+06 -1.15193e+06 -1.16104e+06 -1.17215e+06 -1.18606e+06 -1.20401e+06 -1.2279e+06 -1.25964e+06
          -1.10976e+06 -1.11012e+06 -1.11085e+06 -1.11196e+06 -1.11346e+06 -1.11538e+06 -1.11775e+06 -1.1206e+06 -1.12398e+06 -1.12797e+06 -1.13266e+06 -1.13817e+06
          -1.14468e+06 -1.15243e+06 -1.1618e+06 -1.17339e+06 -1.18823e+06 -1.20838e+06 -1.23864e+06 -1.29296e+06 -1.10959e+06 -1.10995e+06 -1.11068e+06 -1.11178e+06
          -1.11327e+06 -1.11518e+06 -1.11752e+06 -1.12035e+06 -1.1237e+06 -1.12765e+06 -1.13228e+06 -1.13771e+06 -1.14411e+06 -1.15169e+06 -1.16079e+06 -1.1719e+06
          -1.1858e+06 -1.20373e+06 -1.22762e+06 -1.25934e+06 -1.10929e+06 -1.10965e+06 -1.11036e+06 -1.11144e+06 -1.11291e+06 -1.11477e+06 -1.11707e+06 -1.11982e+06
          -1.12309e+06 -1.12692e+06 -1.13139e+06 -1.1366e+06 -1.14268e+06 -1.1498e+06 -1.15819e+06 -1.16814e+06 -1.18001e+06 -1.19417e+06 -1.21058e+06 -1.22762e+06
          -1.10888e+06 -1.10922e+06 -1.10992e+06 -1.11097e+06 -1.11238e+06 -1.11419e+06 -1.1164e+06 -1.11905e+06 -1.12217e+06 -1.12582e+06 -1.13005e+06 -1.13493e+06
          -1.14055e+06 -1.14701e+06 -1.15444e+06 -1.16295e+06 -1.17258e+06 -1.1832e+06 -1.19417e+06 -1.20373e+06 -1.10835e+06 -1.10868e+06 -1.10935e+06 -1.11036e+06
          -1.11172e+06 -1.11344e+06 -1.11554e+06 -1.11806e+06 -1.121e+06 -1.12442e+06 -1.12834e+06 -1.13282e+06 -1.13789e+06 -1.14362e+06 -1.15003e+06 -1.1571e+06
          -1.16472e+06 -1.17258e+06 -1.18001e+06 -1.1858e+06 -1.10773e+06 -1.10805e+06 -1.10868e+06 -1.10964e+06 -1.11092e+06 -1.11255e+06 -1.11453e+06 -1.11688e+06
          -1.11962e+06 -1.12278e+06 -1.12636e+06 -1.1304e+06 -1.13491e+06 -1.13989e+06 -1.14532e+06 -1.15111e+06 -1.1571e+06 -1.16295e+06 -1.16814e+06 -1.1719e+06
          -1.10703e+06 -1.10733e+06 -1.10792e+06 -1.10882e+06 -1.11003e+06 -1.11155e+06 -1.11339e+06 -1.11557e+06 -1.11809e+06 -1.12097e+06 -1.1242e+06 -1.1278e+06
          -1.13176e+06 -1.13604e+06 -1.1406e+06 -1.14532e+06 -1.15003e+06 -1.15444e+06 -1.15819e+06 -1.16079e+06
        </DataArray>
        <DataArray type="Float32" Name="saturation" NumberOfComponents="1" format="ascii">
          0.2853 0.285295 0.285286 0.285272 0.285253 0.28523 0.285202 0.285169 0.28513 0.285087 0.285038 0.284983
          0.284924 0.28486 0.284792 0.284722 0.284652 0.284587 0.284532 0.284494 0.285292 0.285287 0.285277 0.285263
          0.285243 0.285218 0.285188 0.285152 0.28511 0.285063 0.285009 0.284948 0.28488 0.284806 0.284725 0.28464
          0.284552 0.284467 0.284391 0.284337 0.285286 0.28528 0.28527 0.285255 0.285234 0.285208 0.285176 0.285138
          0.285093 0.285041 0.284982 0.284915 0.284839 0.284754 0.28466 0.284556 0.284445 0.284331 0.284224 0.284141
          0.285281 0.285275 0.285265 0.285249 0.285227 0.2852 0.285166 0.285126 0.285079 0.285024 0.28496 0.284887
          0.284803 0.284708 0.284598 0.284474 0.284334 0.284182 0.284026 0.283891 0.285278 0.285272 0.285261 0.285245
          0.285222 0.285194 0.285159 0.285117 0.285068 0.285011 0.284943 0.284866 0.284775 0.28467 0.284547 0.284403
          0.284231 0.28403 0.283799 0.283563 0.285276 0.285271 0.28526 0.285243 0.28522 0.285191 0.285156 0.285113
          0.285062 0.285003 0.284934 0.284853 0.284758 0.284646 0.284513 0.284352 0.284152 0.283899 0.283566 0.283135
          0.285277 0.285271 0.28526 0.285243 0.28522 0.285191 0.285155 0.285112 0.285061 0.285001 0.284931 0.284849
          0.284753 0.284639 0.284502 0.284334 0.284122 0.283837 0.283419 0.282694 0.285279 0.285274 0.285263 0.285246
          0.285223 0.285194 0.285159 0.285116 0.285066 0.285006 0.284937 0.284856 0.284761 0.28465 0.284517 0.284356
          0.284156 0.283902 0.28357 0.283139 0.285284 0.285278 0.285268 0.285251 0.285229 0.285201 0.285166 0.285124
          0.285075 0.285017 0.28495 0.284873 0.284782 0.284677 0.284555 0.28441 0.284239 0.284037 0.283807 0.28357
          0.28529 0.285285 0.285274 0.285258 0.285237 0.285209 0.285176 0.285136 0.285089 0.285034 0.28497 0.284898
          0.284814 0.284718 0.284609 0.284485 0.284346 0.284193 0.284037 0.283902 0.285298 0.285293 0.285283 0.285268
          0.285247 0.285221 0.285189 0.285151 0.285106 0.285055 0.284996 0.284929 0.284853 0.284768 0.284674 0.28457
          0.284459 0.284346 0.284239 0.284156 0.285308 0.285303 0.285293 0.285279 0.285259 0.285234 0.285204 0.285169
          0.285127 0.28508 0.285026 0.284965 0.284898 0.284824 0.284743 0.284658 0.28457 0.284485 0.28441 0.284356
          0.285318 0.285314 0.285305 0.285291 0.285273 0.28525 0.285221 0.285188 0.28515 0.285107 0.285058 0.285004
          0.284945 0.284881 0.284813 0.284743 0.284674 0.284609 0.284555 0.284517
        </DataArray>
        <DataArray type="Float32" Name="process rank" NumberOfComponents="1" format="ascii">
          1 1 1 1 1 1 1 1 1 1 1 1
          1 1 1 1 1 1 1 1 1 1 1 1
          1 1 1 1 1 1 1 1 1 1 1 1
          1 1 1 1 1 1 1 1 1 1 1 1
          1 1 1 1 1 1 1 1 1 1 1 1
          1 1 1 1 1 1 1 1 1 1 1 1
          1 1 1 1 1 1 1 1 1 1 1 1
          1 1 1 1 1 1 1 1 1 1 1 1
          1 1 1 1 1 1 1 1 1 1 1 1
          1 1 1 1 1 1 1 1 1 1 1 1
          1 1 1 1 1 1 1 1 1 1 1 1
          1 1 1 1 1 1 1 1 1 1 1 1
          1 1 1 1 1 1 1 1 1 1 1 1
          1 1 1 1 1 1 1 1 1 1 1 1
          1 1 1 1 1 1 1 1 1 1 1 1
          1 1 1 1 1 1 1 1 1 1 1 1
          1 1 1 1 1 1 1 1 1 1 1 1
          1 1 1 1 1 1 1 1 1 1 1 1
          1 1 1 1 1 1 1 1 1 1 1 1
          1 1 1 1 1 1 1 1 1 1 1 1
          1 1 1 1 1 1 1 1 1 1 1 1
          1 1 1 1 1 1 1 1
        </DataArray>
      </CellData>
      <Points>
        <DataArray type="Float32" Name="Coordinates" NumberOfComponents="3" format="ascii">
          -0.00531441 -0.00186004 -0.01 -0.00504869 -0.00186004 -0.01 -0.00531441 -0.00159432 -0.01 -0.00504869 -0.00159432 -0.01
          -0.00531441 -0.00186004 0 -0.00504869 -0.00186004 0 -0.00531441 -0.00159432 0 -0.00504869 -0.00159432 0
          -0.00478297 -0.00186004 -0.01 -0.00478297 -0.00159432 -0.01 -0.00478297 -0.00186004 0 -0.00478297 -0.00159432 0
          -0.00451725 -0.00186004 -0.01 -0.00451725 -0.00159432 -0.01 -0.00451725 -0.00186004 0 -0.00451725 -0.00159432 0
          -0.00425153 -0.00186004 -0.01 -0.00425153 -0.00159432 -0.01 -0.00425153 -0.00186004 0 -0.00425153 -0.00159432 0
          -0.00398581 -0.00186004 -0.01 -0.00398581 -0.00159432 -0.01 -0.00398581 -0.00186004 0 -0.00398581 -0.00159432 0
          -0.00372009 -0.00186004 -0.01 -0.00372009 -0.00159432 -0.01 -0.00372009 -0.00186004 0 -0.00372009 -0.00159432 0
          -0.00345437 -0.00186004 -0.01 -0.00345437 -0.00159432 -0.01 -0.00345437 -0.00186004 0 -0.00345437 -0.00159432 0
          -0.00318865 -0.00186004 -0.01 -0.00318865 -0.00159432 -0.01 -0.00318865 -0.00186004 0 -0.00318865 -0.00159432 0
          -0.00292293 -0.00186004 -0.01 -0.00292293 -0.00159432 -0.01 -0.00292293 -0.00186004 0 -0.00292293 -0.00159432 0
          -0.00265721 -0.00186004 -0.01 -0.00265721 -0.00159432 -0.01 -0.00265721 -0.00186004 0 -0.00265721 -0.00159432 0
          -0.00239148 -0.00186004 -0.01 -0.00239148 -0.00159432 -0.01 -0.00239148 -0.00186004 0 -0.00239148 -0.00159432 0
          -0.00212576 -0.00186004 -0.01 -0.00212576 -0.00159432 -0.01 -0.00212576 -0.00186004 0 -0.00212576 -0.00159432 0
          -0.00186004 -0.00186004 -0.01 -0.00186004 -0.00159432 -0.01 -0.00186004 -0.00186004 0 -0.00186004 -0.00159432 0
          -0.00159432 -0.00186004 -0.01 -0.00159432 -0.00159432 -0.01 -0.00159432 -0.00186004 0 -0.00159432 -0.00159432 0
          -0.0013286 -0.00186004 -0.01 -0.0013286 -0.00159432 -0.01 -0.0013286 -0.00186004 0 -0.0013286 -0.00159432 0
          -0.00106288 -0.00186004 -0.01 -0.00106288 -0.00159432 -0.01 -0.00106288 -0.00186004 0 -0.00106288 -0.00159432 0
          -0.000797161 -0.00186004 -0.01 -0.000797161 -0.00159432 -0.01 -0.000797161 -0.00186004 0 -0.000797161 -0.00159432 0
          -0.000531441 -0.00186004 -0.01 -0.000531441 -0.00159432 -0.01 -0.000531441 -0.00186004 0 -0.000531441 -0.00159432 0
          -0.000265721 -0.00186004 -0.01 -0.000265721 -0.00159432 -0.01 -0.000265721 -0.00186004 0 -0.000265721 -0.00159432 0
          -2.1684e-19 -0.00186004 -0.01 -2.1684e-19 -0.00159432 -0.01 -2.1684e-19 -0.00186004 0 -2.1684e-19 -0.00159432 0
          -0.00531441 -0.0013286 -0.01 -0.00504869 -0.0013286 -0.01 -0.00531441 -0.0013286 0 -0.00504869 -0.0013286 0
          -0.00478297 -0.0013286 -0.01 -0.00478297 -0.0013286 0 -0.00451725 -0.0013286 -0.01 -0.00451725 -0.0013286 0
          -0.00425153 -0.0013286 -0.01 -0.00425153 -0.0013286 0 -0.00398581 -0.0013286 -0.01 -0.00398581 -0.0013286 0
          -0.00372009 -0.0013286 -0.01 -0.00372009 -0.0013286 0 -0.00345437 -0.0013286 -0.01 -0.00345437 -0.0013286 0
          -0.00318865 -0.0013286 -0.01 -0.00318865 -0.0013286 0 -0.00292293 -0.0013286 -0.01 -0.00292293 -0.0013286 0
          -0.00265721 -0.0013286 -0.01 -0.00265721 -0.0013286 0 -0.00239148 -0.0013286 -0.01 -0.00239148 -0.0013286 0
          -0.00212576 -0.0013286 -0.01 -0.00212576 -0.0013286 0 -0.00186004 -0.0013286 -0.01 -0.00186004 -0.0013286 0
          -0.00159432 -0.0013286 -0.01 -0.00159432 -0.0013286 0 -0.0013286 -0.0013286 -0.01 -0.0013286 -0.0013286 0
          -0.00106288 -0.0013286 -0.01 -0.00106288 -0.0013286 0 -0.000797161 -0.0013286 -0.01 -0.000797161 -0.0013286 0
          -0.000531441 -0.0013286 -0.01 -0.000531441 -0.0013286 0 -0.000265721 -0.0013286 -0.01 -0.000265721 -0.0013286 0
          -2.1684e-19 -0.0013286 -0.01 -2.1684e-19 -0.0013286 0 -0.00531441 -0.00106288 -0.01 -0.00504869 -0.00106288 -0.01
          -0.00531441 -0.00106288 0 -0.00504869 -0.00106288 0 -0.00478297 -0.00106288 -0.01 -0.00478297 -0.00106288 0
          -0.00451725 -0.00106288 -0.01 -0.00451725 -0.00106288 0 -0.00425153 -0.00106288 -0.01 -0.00425153 -0.00106288 0
          -0.00398581 -0.00106288 -0.01 -0.00398581 -0.00106288 0 -0.00372009 -0.00106288 -0.01 -0.00372009 -0.00106288 0
          -0.00345437 -0.00106288 -0.01 -0.00345437 -0.00106288 0 -0.00318865 -0.00106288 -0.01 -0.00318865 -0.00106288 0
          -0.00292293 -0.00106288 -0.01 -0.00292293 -0.00106288 0 -0.00265721 -0.00106288 -0.01 -0.00265721 -0.00106288 0
          -0.00239148 -0.00106288 -0.01 -0.00239148 -0.00106288 0 -0.00212576 -0.00106288 -0.01 -0.00212576 -0.00106288 0
          -0.00186004 -0.00106288 -0.01 -0.00186004 -0.00106288 0 -0.00159432 -0.00106288 -0.01 -0.00159432 -0.00106288 0
          -0.0013286 -0.00106288 -0.01 -0.0013286 -0.00106288 0 -0.00106288 -0.00106288 -0.01 -0.00106288 -0.00106288 0
          -0.000797161 -0.00106288 -0.01 -0.000797161 -0.00106288 0 -0.000531441 -0.00106288 -0.01 -0.000531441 -0.00106288 0
          -0.000265721 -0.00106288 -0.01 -0.000265721 -0.00106288 0 -2.1684e-19 -0.00106288 -0.01 -2.1684e-19 -0.00106288 0
          -0.00531441 -0.000797161 -0.01 -0.00504869 -0.000797161 -0.01 -0.00531441 -0.000797161 0 -0.00504869 -0.000797161 0
          -0.00478297 -0.000797161 -0.01 -0.00478297 -0.000797161 0 -0.00451725 -0.000797161 -0.01 -0.00451725 -0.000797161 0
          -0.00425153 -0.000797161 -0.01 -0.00425153 -0.000797161 0 -0.00398581 -0.000797161 -0.01 -0.00398581 -0.000797161 0
          -0.00372009 -0.000797161 -0.01 -0.00372009 -0.000797161 0 -0.00345437 -0.000797161 -0.01 -0.00345437 -0.000797161 0
          -0.00318865 -0.000797161 -0.01 -0.00318865 -0.000797161 0 -0.00292293 -0.000797161 -0.01 -0.00292293 -0.000797161 0
          -0.00265721 -0.000797161 -0.01 -0.00265721 -0.000797161 0 -0.00239148 -0.000797161 -0.01 -0.00239148 -0.000797161 0
          -0.00212576 -0.000797161 -0.01 -0.00212576 -0.000797161 0 -0.00186004 -0.000797161 -0.01 -0.00186004 -0.000797161 0
          -0.00159432 -0.000797161 -0.01 -0.00159432 -0.000797161 0 -0.0013286 -0.000797161 -0.01 -0.0013286 -0.000797161 0
          -0.00106288 -0.000797161 -0.01 -0.00106288 -0.000797161 0 -0.000797161 -0.000797161 -0.01 -0.000797161 -0.000797161 0
          -0.000531441 -0.000797161 -0.01 -0.000531441 -0.000797161 0 -0.000265721 -0.000797161 -0.01 -0.000265721 -0.000797161 0
          -2.1684e-19 -0.000797161 -0.01 -2.1684e-19 -0.000797161 0 -0.00531441 -0.000531441 -0.01 -0.00504869 -0.000531441 -0.01
          -0.00531441 -0.000531441 0 -0.00504869 -0.000531441 0 -0.00478297 -0.000531441 -0.01 -0.00478297 -0.000531441 0
          -0.00451725 -0.000531441 -0.01 -0.00451725 -0.000531441 0 -0.00425153 -0.000531441 -0.01 -0.00425153 -0.000531441 0
          -0.00398581 -0.000531441 -0.01 -0.00398581 -0.000531441 0 -0.00372009 -0.000531441 -0.01 -0.00372009 -0.000531441 0
          -0.00345437 -0.000531441 -0.01 -0.00345437 -0.000531441 0 -0.00318865 -0.000531441 -0.01 -0.00318865 -0.000531441 0
          -0.00292293 -0.000531441 -0.01 -0.00292293 -0.000531441 0 -0.00265721 -0.000531441 -0.01 -0.00265721 -0.000531441 0
          -0.00239148 -0.000531441 -0.01 -0.00239148 -0.000531441 0 -0.00212576 -0.000531441 -0.01 -0.00212576 -0.000531441 0
          -0.00186004 -0.000531441 -0.01 -0.00186004 -0.000531441 0 -0.00159432 -0.000531441 -0.01 -0.00159432 -0.000531441 0
          -0.0013286 -0.000531441 -0.01 -0.0013286 -0.000531441 0 -0.00106288 -0.000531441 -0.01 -0.00106288 -0.000531441 0
          -0.000797161 -0.000531441 -0.01 -0.000797161 -0.000531441 0 -0.000531441 -0.000531441 -0.01 -0.000531441 -0.000531441 0
          -0.000265721 -0.000531441 -0.01 -0.000265721 -0.000531441 0 -2.1684e-19 -0.000531441 -0.01 -2.1684e-19 -0.000531441 0
          -0.00531441 -0.000265721 -0.01 -0.00504869 -0.000265721 -0.01 -0.00531441 -0.000265721 0 -0.00504869 -0.000265721 0
          -0.00478297 -0.000265721 -0.01 -0.00478297 -0.000265721 0 -0.00451725 -0.000265721 -0.01 -0.00451725 -0.000265721 0
          -0.00425153 -0.000265721 -0.01 -0.00425153 -0.000265721 0 -0.00398581 -0.000265721 -0.01 -0.00398581 -0.000265721 0
          -0.00372009 -0.000265721 -0.01 -0.00372009 -0.000265721 0 -0.00345437 -0.000265721 -0.01 -0.00345437 -0.000265721 0
          -0.00318865 -0.000265721 -0.01 -0.00318865 -0.000265721 0 -0.00292293 -0.000265721 -0.01 -0.00292293 -0.000265721 0
          -0.00265721 -0.000265721 -0.01 -0.00265721 -0.000265721 0 -0.00239148 -0.000265721 -0.01 -0.00239148 -0.000265721 0
          -0.00212576 -0.000265721 -0.01 -0.00212576 -0.000265721 0 -0.00186004 -0.000265721 -0.01 -0.00186004 -0.000265721 0
          -0.00159432 -0.000265721 -0.01 -0.00159432 -0.000265721 0 -0.0013286 -0.000265721 -0.01 -0.0013286 -0.000265721 0
          -0.00106288 -0.000265721 -0.01 -0.00106288 -0.000265721 0 -0.000797161 -0.000265721 -0.01 -0.000797161 -0.000265721 0
          -0.000531441 -0.000265721 -0.01 -0.000531441 -0.000265721 0 -0.000265721 -0.000265721 -0.01 -0.000265721 -0.000265721 0
          -2.1684e-19 -0.000265721 -0.01 -2.1684e-19 -0.000265721 0 -0.00531441 -2.1684e-19 -0.01 -0.00504869 -2.1684e-19 -0.01
          -0.00531441 -2.1684e-19 0 -0.00504869 -2.1684e-19 0 -0.00478297 -2.1684e-19 -0.01 -0.00478297 -2.1684e-19 0
          -0.00451725 -2.1684e-19 -0.01 -0.00451725 -2.1684e-19 0 -0.00425153 -2.1684e-19 -0.01 -0.00425153 -2.1684e-19 0
          -0.00398581 -2.1684e-19 -0.01 -0.00398581 -2.1684e-19 0 -0.00372009 -2.1684e-19 -0.01 -0.00372009 -2.1684e-19 0
          -0.00345437 -2.1684e-19 -0.01 -0.00345437 -2.1684e-19 0 -0.00318865 -2.1684e-19 -0.01 -0.00318865 -2.1684e-19 0
          -0.00292293 -2.1684e-19 -0.01 -0.00292293 -2.1684e-19 0 -0.00265721 -2.1684e-19 -0.01 -0.00265721 -2.1684e-19 0
          -0.00239148 -2.1684e-19 -0.01 -0.00239148 -2.1684e-19 0 -0.00212576 -2.1684e-19 -0.01 -0.00212576 -2.1684e-19 0
          -0.00186004 -2.1684e-19 -0.01 -0.00186004 -2.1684e-19 0 -0.00159432 -2.1684e-19 -0.01 -0.00159432 -2.1684e-19 0
          -0.0013286 -2.1684e-19 -0.01 -0.0013286 -2.1684e-19 0 -0.00106288 -2.1684e-19 -0.01 -0.00106288 -2.1684e-19 0
          -0.000797161 -2.1684e-19 -0.01 -0.000797161 -2.1684e-19 0 -0.000531441 -2.1684e-19 -0.01 -0.000531441 -2.1684e-19 0
          -0.000265721 -2.1684e-19 -0.01 -0.000265721 -2.1684e-19 0 -2.1684e-19 -2.1684e-19 -0.01 -2.1684e-19 -2.1684e-19 0
          -0.00531441 0.000265721 -0.01 -0.00504869 0.000265721 -0.01 -0.00531441 0.000265721 0 -0.00504869 0.000265721 0
          -0.00478297 0.000265721 -0.01 -0.00478297 0.000265721 0 -0.00451725 0.000265721 -0.01 -0.00451725 0.000265721 0
          -0.00425153 0.000265721 -0.01 -0.00425153 0.000265721 0 -0.00398581 0.000265721 -0.01 -0.00398581 0.000265721 0
          -0.00372009 0.000265721 -0.01 -0.00372009 0.000265721 0 -0.00345437 0.000265721 -0.01 -0.00345437 0.000265721 0
          -0.00318865 0.000265721 -0.01 -0.00318865 0.000265721 0 -0.00292293 0.000265721 -0.01 -0.00292293 0.000265721 0
          -0.00265721 0.000265721 -0.01 -0.00265721 0.000265721 0 -0.00239148 0.000265721 -0.01 -0.00239148 0.000265721 0
          -0.00212576 0.000265721 -0.01 -0.00212576 0.000265721 0 -0.00186004 0.000265721 -0.01 -0.00186004 0.000265721 0
          -0.00159432 0.000265721 -0.01 -0.00159432 0.000265721 0 -0.0013286 0.000265721 -0.01 -0.0013286 0.000265721 0
          -0.00106288 0.000265721 -0.01 -0.00106288 0.000265721 0 -0.000797161 0.000265721 -0.01 -0.000797161 0.000265721 0
          -0.000531441 0.000265721 -0.01 -0.000531441 0.000265721 0 -0.000265721 0.000265721 -0.01 -0.000265721 0.000265721 0
          -2.1684e-19 0.000265721 -0.01 -2.1684e-19 0.000265721 0 -0.00531441 0.000531441 -0.01 -0.00504869 0.000531441 -0.01
          -0.00531441 0.000531441 0 -0.00504869 0.000531441 0 -0.00478297 0.000531441 -0.01 -0.00478297 0.000531441 0
          -0.00451725 0.000531441 -0.01 -0.00451725 0.000531441 0 -0.00425153 0.000531441 -0.01 -0.00425153 0.000531441 0
          -0.00398581 0.000531441 -0.01 -0.00398581 0.000531441 0 -0.00372009 0.000531441 -0.01 -0.00372009 0.000531441 0
          -0.00345437 0.000531441 -0.01 -0.00345437 0.000531441 0 -0.00318865 0.000531441 -0.01 -0.00318865 0.000531441 0
          -0.00292293 0.000531441 -0.01 -0.00292293 0.000531441 0 -0.00265721 0.000531441 -0.01 -0.00265721 0.000531441 0
          -0.00239148 0.000531441 -0.01 -0.00239148 0.000531441 0 -0.00212576 0.000531441 -0.01 -0.00212576 0.000531441 0
          -0.00186004 0.000531441 -0.01 -0.00186004 0.000531441 0 -0.00159432 0.000531441 -0.01 -0.00159432 0.000531441 0
          -0.0013286 0.000531441 -0.01 -0.0013286 0.000531441 0 -0.00106288 0.000531441 -0.01 -0.00106288 0.000531441 0
          -0.000797161 0.000531441 -0.01 -0.000797161 0.000531441 0 -0.000531441 0.000531441 -0.01 -0.000531441 0.000531441 0
          -0.000265721 0.000531441 -0.01 -0.000265721 0.000531441 0 -2.1684e-19 0.000531441 -0.01 -2.1684e-19 0.000531441 0
          -0.00531441 0.000797161 -0.01 -0.00504869 0.000797161 -0.01 -0.00531441 0.000797161 0 -0.00504869 0.000797161 0
          -0.00478297 0.000797161 -0.01 -0.00478297 0.000797161 0 -0.00451725 0.000797161 -0.01 -0.00451725 0.000797161 0
          -0.00425153 0.000797161 -0.01 -0.00425153 0.000797161 0 -0.00398581 0.000797161 -0.01 -0.00398581 0.000797161 0
          -0.00372009 0.000797161 -0.01 -0.00372009 0.000797161 0 -0.00345437 0.000797161 -0.01 -0.00345437 0.000797161 0
          -0.00318865 0.000797161 -0.01 -0.00318865 0.000797161 0 -0.00292293 0.000797161 -0.01 -0.00292293 0.000797161 0
          -0.00265721 0.000797161 -0.01 -0.00265721 0.000797161 0 -0.00239148 0.000797161 -0.01 -0.00239148 0.000797161 0
          -0.00212576 0.000797161 -0.01 -0.00212576 0.000797161 0 -0.00186004 0.000797161 -0.01 -0.00186004 0.000797161 0
          -0.00159432 0.000797161 -0.01 -0.00159432 0.000797161 0 -0.0013286 0.000797161 -0.01 -0.0013286 0.000797161 0
          -0.00106288 0.000797161 -0.01 -0.00106288 0.000797161 0 -0.000797161 0.000797161 -0.01 -0.000797161 0.000797161 0
          -0.000531441 0.000797161 -0.01 -0.000531441 0.000797161 0 -0.000265721 0.000797161 -0.01 -0.000265721 0.000797161 0
          -2.1684e-19 0.000797161 -0.01 -2.1684e-19 0.000797161 0 -0.00531441 0.00106288 -0.01 -0.00504869 0.00106288 -0.01
          -0.00531441 0.00106288 0 -0.00504869 0.00106288 0 -0.00478297 0.00106288 -0.01 -0.00478297 0.00106288 0
          -0.00451725 0.00106288 -0.01 -0.00451725 0.00106288 0 -0.00425153 0.00106288 -0.01 -0.00425153 0.00106288 0
          -0.00398581 0.00106288 -0.01 -0.00398581 0.00106288 0 -0.00372009 0.00106288 -0.01 -0.00372009 0.00106288 0
          -0.00345437 0.00106288 -0.01 -0.00345437 0.00106288 0 -0.00318865 0.00106288 -0.01 -0.00318865 0.00106288 0
          -0.00292293 0.00106288 -0.01 -0.00292293 0.00106288 0 -0.00265721 0.00106288 -0.01 -0.00265721 0.00106288 0
          -0.00239148 0.00106288 -0.01 -0.00239148 0.00106288 0 -0.00212576 0.00106288 -0.01 -0.00212576 0.00106288 0
          -0.00186004 0.00106288 -0.01 -0.00186004 0.00106288 0 -0.00159432 0.00106288 -0.01 -0.00159432 0.00106288 0
          -0.0013286 0.00106288 -0.01 -0.0013286 0.00106288 0 -0.00106288 0.00106288 -0.01 -0.00106288 0.00106288 0
          -0.000797161 0.00106288 -0.01 -0.000797161 0.00106288 0 -0.000531441 0.00106288 -0.01 -0.000531441 0.00106288 0
          -0.000265721 0.00106288 -0.01 -0.000265721 0.00106288 0 -2.1684e-19 0.00106288 -0.01 -2.1684e-19 0.00106288 0
          -0.00531441 0.0013286 -0.01 -0.00504869 0.0013286 -0.01 -0.00531441 0.0013286 0 -0.00504869 0.0013286 0
          -0.00478297 0.0013286 -0.01 -0.00478297 0.0013286 0 -0.00451725 0.0013286 -0.01 -0.00451725 0.0013286 0
          -0.00425153 0.0013286 -0.01 -0.00425153 0.0013286 0 -0.00398581 0.0013286 -0.01 -0.00398581 0.0013286 0
          -0.00372009 0.0013286 -0.01 -0.00372009 0.0013286 0 -0.00345437 0.0013286 -0.01 -0.00345437 0.0013286 0
          -0.00318865 0.0013286 -0.01 -0.00318865 0.0013286 0 -0.00292293 0.0013286 -0.01 -0.00292293 0.0013286 0
          -0.00265721 0.0013286 -0.01 -0.00265721 0.0013286 0 -0.00239148 0.0013286 -0.01 -0.00239148 0.0013286 0
          -0.00212576 0.0013286 -0.01 -0.00212576 0.0013286 0 -0.00186004 0.0013286 -0.01 -0.00186004 0.0013286 0
          -0.00159432 0.0013286 -0.01 -0.00159432 0.0013286 0 -0.0013286 0.0013286 -0.01 -0.0013286 0.0013286 0
          -0.00106288 0.0013286 -0.01 -0.00106288 0.0013286 0 -0.000797161 0.0013286 -0.01 -0.000797161 0.0013286 0
          -0.000531441 0.0013286 -0.01 -0.000531441 0.0013286 0 -0.000265721 0.0013286 -0.01 -0.000265721 0.0013286 0
          -2.1684e-19 0.0013286 -0.01 -2.1684e-19 0.0013286 0 -0.00531441 0.00159432 -0.01 -0.00504869 0.00159432 -0.01
          -0.00531441 0.00159432 0 -0.00504869 0.00159432 0 -0.00478297 0.00159432 -0.01 -0.00478297 0.00159432 0
          -0.00451725 0.00159432 -0.01 -0.00451725 0.00159432 0 -0.00425153 0.00159432 -0.01 -0.00425153 0.00159432 0
          -0.00398581 0.00159432 -0.01 -0.00398581 0.00159432 0 -0.00372009 0.00159432 -0.01 -0.00372009 0.00159432 0
          -0.00345437 0.00159432 -0.01 -0.00345437 0.00159432 0 -0.00318865 0.00159432 -0.01 -0.00318865 0.00159432 0
          -0.00292293 0.00159432 -0.01 -0.00292293 0.00159432 0 -0.00265721 0.00159432 -0.01 -0.00265721 0.00159432 0
          -0.00239148 0.00159432 -0.01 -0.00239148 0.00159432 0 -0.00212576 0.00159432 -0.01 -0.00212576 0.00159432 0
          -0.00186004 0.00159432 -0.01 -0.00186004 0.00159432 0 -0.00159432 0.00159432 -0.01 -0.00159432 0.00159432 0
          -0.0013286 0.00159432 -0.01 -0.0013286 0.00159432 0 -0.00106288 0.00159432 -0.01 -0.00106288 0.00159432 0
          -0.000797161 0.00159432 -0.01 -0.000797161 0.00159432 0 -0.000531441 0.00159432 -0.01 -0.000531441 0.00159432 0
          -0.000265721 0.00159432 -0.01 -0.000265721 0.00159432 0 -2.1684e-19 0.00159432 -0.01 -2.1684e-19 0.00159432 0
        </DataArray>
      </Points>
      <Cells>
        <DataArray type="Int32" Name="connectivity" NumberOfComponents="1" format="ascii">
          0 1 3 2 4 5 7 6 1 8 9 3
          5 10 11 7 8 12 13 9 10 14 15 11
          12 16 17 13 14 18 19 15 16 20 21 17
          18 22 23 19 20 24 25 21 22 26 27 23
          24 28 29 25 26 30 31 27 28 32 33 29
          30 34 35 31 32 36 37 33 34 38 39 35
          36 40 41 37 38 42 43 39 40 44 45 41
          42 46 47 43 44 48 49 45 46 50 51 47
          48 52 53 49 50 54 55 51 52 56 57 53
          54 58 59 55 56 60 61 57 58 62 63 59
          60 64 65 61 62 66 67 63 64 68 69 65
          66 70 71 67 68 72 73 69 70 74 75 71
          72 76 77 73 74 78 79 75 76 80 81 77
          78 82 83 79 2 3 85 84 6 7 87 86
          3 9 88 85 7 11 89 87 9 13 90 88
          11 15 91 89 13 17 92 90 15 19 93 91
          17 21 94 92 19 23 95 93 21 25 96 94
          23 27 97 95 25 29 98 96 27 31 99 97
          29 33 100 98 31 35 101 99 33 37 102 100
          35 39 103 101 37 41 104 102 39 43 105 103
          41 45 106 104 43 47 107 105 45 49 108 106
          47 51 109 107 49 53 110 108 51 55 111 109
          53 57 112 110 55 59 113 111 57 61 114 112
          59 63 115 113 61 65 116 114 63 67 117 115
          65 69 118 116 67 71 119 117 69 73 120 118
          71 75 121 119 73 77 122 120 75 79 123 121
          77 81 124 122 79 83 125 123 84 85 127 126
          86 87 129 128 85 88 130 127 87 89 131 129
          88 90 132 130 89 91 133 131 90 92 134 132
          91 93 135 133 92 94 136 134 93 95 137 135
          94 96 138 136 95 97 139 137 96 98 140 138
          97 99 141 139 98 100 142 140 99 101 143 141
          100 102 144 142 101 103 145 143 102 104 146 144
          103 105 147 145 104 106 148 146 105 107 149 147
          106 108 150 148 107 109 151 149 108 110 152 150
          109 111 153 151 110 112 154 152 111 113 155 153
          112 114 156 154 113 115 157 155 114 116 158 156
          115 117 159 157 116 118 160 158 117 119 161 159
          118 120 162 160 119 121 163 161 120 122 164 162
          121 123 165 163 122 124 166 164 123 125 167 165
          126 127 169 168 128 129 171 170 127 130 172 169
          129 131 173 171 130 132 174 172 131 133 175 173
          132 134 176 174 133 135 177 175 134 136 178 176
          135 137 179 177 136 138 180 178 137 139 181 179
          138 140 182 180 139 141 183 181 140 142 184 182
          141 143 185 183 142 144 186 184 143 145 187 185
          144 146 188 186 145 147 189 187 146 148 190 188
          147 149 191 189 148 150 192 190 149 151 193 191
          150 152 194 192 151 153 195 193 152 154 196 194
          153 155 197 195 154 156 198 196 155 157 199 197
          156 158 200 198 157 159 201 199 158 160 202 200
          159 161 203 201 160 162 204 202 161 163 205 203
          162 164 206 204 163 165 207 205 164 166 208 206
          165 167 209 207 168 169 211 210 170 171 213 212
          169 172 214 211 171 173 215 213 172 174 216 214
          173 175 217 215 174 176 218 216 175 177 219 217
          176 178 220 218 177 179 221 219 178 180 222 220
          179 181 223 221 180 182 224 222 181 183 225 223
          182 184 226 224 183 185 227 225 184 186 228 226
          185 187 229 227 186 188 230 228 187 189 231 229
          188 190 232 230 189 191 233 231 190 192 234 232
          191 193 235 233 192 194 236 234 193 195 237 235
          194 196 238 236 195 197 239 237 196 198 240 238
          197 199 241 239 198 200 242 240 199 201 243 241
          200 202 244 242 201 203 245 243 202 204 246 244
          203 205 247 245 204 206 248 246 205 207 249 247
          206 208 250 248 207 209 251 249 210 211 253 252
          212 213 255 254 211 214 256 253 213 215 257 255
          214 216 258 256 215 217 259 257 216 218 260 258
          217 219 261 259 218 220 262 260 219 221 263 261
          220 222 264 262 221 223 265 263 222 224 266 264
          223 225 267 265 224 226 268 266 225 227 269 267
          226 228 270 268 227 229 271 269 228 230 272 270
          229 231 273 271 230 232 274 272 231 233 275 273
          232 234 276 274 233 235 277 275 234 236 278 276
          235 237 279 277 236 238 280 278 237 239 281 279
          238 240 282 280 239 241 283 281 240 242 284 282
          241 243 285 283 242 244 286 284 243 245 287 285
          244 246 288 286 245 247 289 287 246 248 290 288
          247 249 291 289 248 250 292 290 249 251 293 291
          252 253 295 294 254 255 297 296 253 256 298 295
          255 257 299 297 256 258 300 298 257 259 301 299