<?xml version="1.0"?>
<VTKFile type="UnstructuredGrid" version="0.1" byte_order="LittleEndian">
  <UnstructuredGrid>
    <Piece NumberOfCells="960" NumberOfPoints="1296">
      <CellData Scalars="p (Pa)">
        <DataArray type="Float32" Name="p (Pa)" NumberOfComponents="1" format="ascii">
          -360351 -363564 -369246 -375949 -381838 -385573 -387174 -387576 -359425 -362706 -368536 -375436
          -381450 -385086 -386445 -386665 -357345 -360633 -366494 -373455 -379487 -382965 -384034 -384045
          -353983 -357073 -362547 -368992 -374564 -377882 -378906 -378902 -349673 -352392 -357155 -362674
          -367398 -370331 -371431 -371585 -345179 -347468 -351434 -355966 -359835 -362342 -363474 -363782
          -341458 -343384 -346696 -350459 -353702 -355894 -357019 -357418 -339356 -341078 -344031 -347386
          -350310 -352342 -353454 -353892 -370046 -374209 -381651 -390457 -397893 -401844 -402754 -402511
          -369253 -373626 -381540 -391053 -399035 -402750 -402978 -402248 -367227 -371745 -380024 -390172
          -398732 -402181 -401556 -400224 -363592 -367855 -375570 -384825 -392576 -396312 -395865 -394553
          -358682 -362386 -368954 -376541 -382609 -385774 -386006 -385306 -353407 -356440 -361704 -367594
          -372186 -374722 -375359 -375190 -348966 -351422 -355618 -360241 -363896 -366052 -366877 -367009
          -346438 -348571 -352190 -356166 -359380 -361372 -362272 -362529 -389588 -395953 -407622 -421744
          -433133 -437205 -435873 -433770 -389183 -396203 -409485 -426377 -440220 -443228 -439265 -435492
          -387408 -395066 -410079 -430528 -448376 -449978 -441916 -435716 -383245 -390505 -404342 -422058
          -436915 -442484 -435554 -429270 -377050 -383286 -394754 -408298 -417761 -421463 -418561 -414945
          -370038 -374954 -383653 -393227 -399228 -401481 -400533 -398922 -363967 -367711 -374112 -380870
          -385242 -387044 -386974 -386365 -360474 -363567 -368756 -374168 -377888 -379607 -379899 -379683
          -419054 -429354 -449030 -474101 -493909 -496994 -489819 -483468 -419511 -431618 -456338 -491885
          -522495 -519777 -502029 -490077 -418484 -432709 -464349 -519659 -580058 -562260 -519671 -497223
          -413585 -427127 -455423 -497130 -535327 -555829 -516383 -491327 -405316 -417008 -440380 -470720
          -485769 -491060 -478062 -465228 -395292 -404210 -420996 -440225 -446703 -446912 -441790 -436452
          -386310 -392610 -403669 -415089 -419738 -419940 -417714 -415451 -381101 -385968 -394158 -402284
          -406396 -407095 -406010 -404821 -457441 -473554 -505778 -549648 -584124 -583759 -565375 -551673
          -459366 -479625 -525173 -603993 -679377 -651428 -596711 -567504 -459848 -485882 -556021 -761823
          -1.13247e+06 -892283 -662090 -591480 -454089 -479102 -538737 -649078 -760354 -971054 -695581 -594228
          -442997 -465476 -518461 -610226 -612020 -621633 -583973 -541618 -428386 -445146 -481452 -533381
          -524677 -514845 -501332 -487440 -414814 -425636 -446047 -468409 -469317 -464198 -457749 -452395
          -406935 -414647 -427975 -440939 -444345 -442334 -438697 -435867 -501713 -524388 -570539 -633948
          -678026 -679201 -653026 -632392 -505267 -534866 -604170 -729091 -797277 -773385 -701982 -657361
          -507446 -547972 -669380 -1.11011e+06 -1.16363e+06 -1.09629e+06 -830881 -702955 -500613 -541427 -652072 -901983
          -961782 -1.01571e+06 -1.12152e+06 -736791 -486049 -525766 -648646 -1.11125e+06 -800405 -745798 -783240 -636943
          -465475 -494786 -575911 -802209 -641428 -591028 -572058 -543035 -445874 -463022 -499425 -548769
          -530702 -512648 -500430 -490954 -434621 -445867 -466248 -486829 -486916 -479961 -472863 -468035
          -547324 -575867 -633163 -709692 -766947 -776485 -744164 -717803 -551831 -588889 -672142 -805598
          -881316 -858772 -788772 -741136 -554230 -604909 -745804 -1.12604e+06 -1.16991e+06 -1.07065e+06 -888613 -777113
          -544386 -597294 -749040 -1.1654e+06 -1.19511e+06 -1.16803e+06 -1.03365e+06 -781687 -524183 -573855 -725439 -1.16694e+06
          -937728 -821062 -751741 -671477 -497570 -535226 -651658 -1.10222e+06 -736039 -643286 -603676 -576877
          -472725 -493933 -541623 -615513 -578595 -549427 -531165 -520288 -458722 -472178 -497140 -523248
          -520737 -510200 -500505 -494569 -589814 -624102 -691944 -779207 -862736 -910102 -849544 -809259
          -594832 -639820 -736812 -858703 -958992 -966884 -876502 -823611 -595913 -658048 -821866 -1.03866e+06
          -1.16938e+06 -1.17245e+06 -927328 -834174 -578180 -634498 -779746 -1.05594e+06 -1.1764e+06 -1.15018e+06 -892379 -783836
          -549508 -597218 -733372 -1.14697e+06 -1.01121e+06 -825715 -729363 -679503 -516855 -548868 -626556 -763949
          -711502 -651404 -613131 -592190 -489564 -508271 -545560 -589460 -582487 -563072 -546806 -537363
          -474671 -487150 -509219 -530788 -533142 -525678 -517094 -511700 -624091 -664420 -745758 -847823
          -979870 -1.18148e+06 -984985 -908545 -629603 -686809 -822562 -939503 -1.04699e+06 -1.11117e+06 -980286 -919544
          -629674 -722795 -1.13102e+06 -1.17601e+06 -1.17438e+06 -1.18528e+06 -982233 -922980 -599865 -658973 -808956 -983071
          -1.16717e+06 -995556 -854481 -800179 -561395 -599676 -685498 -810684 -835965 -767456 -710200 -681509
          -524703 -548326 -595551 -652279 -657178 -633332 -609818 -596351 -496938 -511261 -537053 -563484
          -568748 -560765 -550580 -544122 -482309 -492415 -509538 -525970 -531623 -528839 -523420 -519623
          -643886 -684884 -767291 -878571 -1.02615e+06 -1.20379e+06 -1.06342e+06 -987017 -646185 -699341 -814725 -949423
          -1.09802e+06 -1.19833e+06 -1.08382e+06 -1.0313e+06 -639407 -710080 -900037 -1.08211e+06 -1.17229e+06 -1.15906e+06 -1.06856e+06 -1.15666e+06
          -605837 -655765 -769372 -916400 -971090 -910117 -850773 -836289 -563425 -593704 -654274 -726000
          -747980 -724656 -696712 -682132 -525403 -543190 -575629 -610030 -621682 -614208 -602125 -594411
          -498100 -509015 -527731 -546399 -554477 -552947 -547834 -544045 -484073 -492033 -505272 -518268
          -525049 -525527 -523011 -520815 -651340 -692031 -775281 -886462 -1.01185e+06 -1.12577e+06 -1.0695e+06 -1.00386e+06
          -651330 -704778 -830616 -974812 -1.10999e+06 -1.2042e+06 -1.15435e+06 -1.03878e+06 -641511 -718088 -1.02027e+06 -1.19543e+06
          -1.17664e+06 -1.17903e+06 -1.17431e+06 -1.05115e+06 -605051 -655199 -792247 -1.09966e+06 -951289 -895426 -852230 -812439
          -560823 -588098 -645067 -720401 -719934 -703781 -684480 -670579 -522668 -537531 -564484 -593381
          -602980 -600218 -592922 -587378 -496074 -504970 -520103 -535468 -543535 -544589 -542143 -539830
          -482628 -489140 -499968 -510945 -517799 -519887 -519135 -517988 -649002 -686335 -763223 -873089
          -987466 -1.07e+06 -1.04759e+06 -975271 -645608 -690720 -793152 -954705 -1.09787e+06 -1.19635e+06 -1.18509e+06 -995577
          -631233 -685784 -838689 -1.1697e+06 -1.16842e+06 -1.19989e+06 -1.03219e+06 -915647 -596832 -637685 -742973 -998869
          -911340 -867218 -805312 -765341 -554867 -578210 -626368 -691670 -696501 -684639 -665026 -651349
          -518299 -531110 -554271 -579511 -589256 -588278 -582264 -577414 -492790 -500447 -513488 -526989
          -534817 -536788 -535374 -533683 -479917 -485528 -494904 -504640 -511258 -513948 -513997 -513363
          -643120 -677177 -747461 -850817 -958400 -990305 -952685 -907788 -637423 -675872 -760671 -901141
          -1.07287e+06 -1.08661e+06 -984750 -900467 -620570 -662004 -761214 -950248 -1.16914e+06 -1.18095e+06 -928654 -837101
          -588287 -621080 -694678 -812313 -862624 -838499 -765654 -727497 -549082 -569276 -608906 -657544
          -676127 -668252 -647177 -633370 -514257 -525769 -546307 -568397 -579119 -578703 -572585 -567753
          -489702 -496662 -508501 -520820 -528372 -530423 -529151 -527586 -477261 -482368 -490921 -499887
          -506169 -508893 -509129 -508646 -638606 -671491 -740264 -844985 -958089 -944002 -892060 -856000
          -632426 -669450 -753378 -908395 -1.17296e+06 -1.03054e+06 -901237 -841562 -615537 -655360 -752487 -948561
          -1.16713e+06 -1.14182e+06 -869251 -790743 -584730 -618067 -696930 -834641 -864012 -816529 -738358 -701942
          -546424 -567038 -608850 -662037 -673768 -658518 -634479 -620258 -512033 -523573 -544457 -566975
          -575652 -572983 -565679 -560498 -487733 -494551 -506197 -518232 -525023 -526330 -524642 -522935
          -475428 -480350 -488599 -497201 -503062 -505459 -505533 -505003 -636693 -669546 -738027 -837271
          -917948 -904133 -858855 -828555 -631007 -669299 -758054 -914752 -1.03162e+06 -945990 -856398 -811603
          -615347 -660225 -786154 -1.13795e+06 -1.16704e+06 -964330 -819701 -764652 -585544 -626269 -749092 -1.15778e+06
          -917180 -792947 -720032 -687753 -546547 -570214 -624041 -708913 -687364 -654486 -627497 -613192
          -511543 -523956 -547391 -573818 -577543 -570906 -562190 -556669 -486989 -493985 -506069 -518514
          -524295 -524584 -522380 -520498 -474618 -479538 -487796 -496334 -501833 -503857 -503709 -503093
        </DataArray>
        <DataArray type="Float32" Name="saturation" NumberOfComponents="1" format="ascii">
          0.759742 0.759393 0.758782 0.758071 0.757455 0.757068 0.756904 0.756862 0.759844 0.759486 0.758858 0.758125
          0.757495 0.757118 0.756979 0.756956 0.760072 0.759712 0.759077 0.758334 0.7577 0.757338 0.757227 0.757226
          0.760443 0.760102 0.759503 0.758809 0.758217 0.757868 0.75776 0.757761 0.760923 0.760619 0.760093 0.75949
          0.75898 0.758666 0.758549 0.758532 0.761429 0.76117 0.760726 0.760224 0.759799 0.759526 0.759403 0.759369
          0.761852 0.761632 0.761257 0.760835 0.760474 0.760231 0.760108 0.760064 0.762092 0.761895 0.761559 0.76118
          0.760852 0.760625 0.760501 0.760453 0.758696 0.758254 0.757474 0.756568 0.755816 0.755422 0.755331 0.755356
          0.758781 0.758316 0.757486 0.756507 0.755702 0.755332 0.755309 0.755382 0.758998 0.758515 0.757643 0.756597
          0.755732 0.755388 0.75545 0.755583 0.75939 0.758931 0.75811 0.757145 0.756352 0.755975 0.75602 0.756152
          0.759925 0.759521 0.758813 0.758008 0.757375 0.757048 0.757024 0.757096 0.760507 0.760171 0.759595 0.758959
          0.758468 0.7582 0.758133 0.75815 0.761002 0.760727 0.760262 0.759754 0.759357 0.759124 0.759036 0.759021
          0.761286 0.761046 0.760642 0.760201 0.759849 0.759631 0.759533 0.759505 0.756656 0.756011 0.754851 0.753485
          0.752412 0.752035 0.752158 0.752353 0.756698 0.755986 0.754668 0.753046 0.751757 0.751482 0.751845 0.752193
          0.75688 0.756101 0.75461 0.752656 0.751015 0.750871 0.751602 0.752173 0.757309 0.756563 0.755174 0.753455
          0.752062 0.75155 0.752188 0.752774 0.757955 0.757304 0.756132 0.754785 0.753866 0.753512 0.753789 0.754138
          0.758697 0.758175 0.757266 0.756286 0.755683 0.755458 0.755552 0.755713 0.759349 0.758946 0.758264 0.757555
          0.757102 0.756917 0.756924 0.756987 0.759729 0.759393 0.758834 0.758258 0.757867 0.757687 0.757657 0.757679
          0.753742 0.752766 0.750956 0.74875 0.747079 0.746825 0.747419 0.747952 0.753698 0.752554 0.750302 0.747247
          0.744773 0.744987 0.746412 0.747398 0.753797 0.752452 0.749595 0.744996 0.740459 0.741749 0.744996 0.746806
          0.754269 0.752975 0.750383 0.746814 0.743775 0.742224 0.745256 0.747294 0.755078 0.753939 0.751743 0.749041
          0.747758 0.747316 0.748411 0.749518 0.756078 0.755187 0.753556 0.751757 0.751166 0.751148 0.751614 0.752105
          0.756992 0.756349 0.755241 0.754124 0.753677 0.753657 0.753871 0.754089 0.757531 0.757028 0.756192 0.755378
          0.754972 0.754903 0.75501 0.755127 0.750204 0.748797 0.746107 0.742686 0.740169 0.740195 0.74152 0.742534
          0.750033 0.748278 0.744563 0.738781 0.733876 0.735631 0.739285 0.741365 0.749991 0.747749 0.74221 0.729071
          0.712335 0.72241 0.734953 0.73965 0.750502 0.748322 0.743513 0.735782 0.729152 0.718837 0.732889 0.739458
          0.751503 0.749497 0.745091 0.738354 0.738232 0.737583 0.74018 0.743293 0.752856 0.751308 0.748123 0.743925
          0.744602 0.745379 0.746469 0.747618 0.75415 0.753116 0.751226 0.749241 0.749163 0.749609 0.750177 0.750654
          0.754919 0.754166 0.752895 0.751691 0.75138 0.751564 0.751897 0.752159 0.746438 0.744624 0.741144 0.736766
          0.733959 0.733887 0.735529 0.736869 0.746149 0.74381 0.738769 0.730916 0.727157 0.728438 0.732505 0.735253
          0.745972 0.742812 0.734496 0.713179 0.711188 0.713708 0.725418 0.732447 0.746528 0.743308 0.73559 0.721954
          0.719242 0.716936 0.712746 0.730475 0.747735 0.744516 0.73581 0.713135 0.726992 0.729965 0.727905 0.73657
          0.749497 0.747007 0.740756 0.726898 0.736277 0.739682 0.741034 0.743185 0.751242 0.749712 0.746625 0.742752
          0.744132 0.745554 0.746543 0.747325 0.752274 0.751242 0.749429 0.74767 0.747662 0.748249 0.748856 0.749274
          0.742861 0.740759 0.736818 0.732047 0.728789 0.72827 0.730057 0.731571 0.742522 0.739832 0.734324 0.72672
          0.722932 0.724026 0.727609 0.730228 0.742343 0.738718 0.729964 0.712576 0.710961 0.714709 0.722584 0.728236
          0.743083 0.739244 0.729783 0.711124 0.71006 0.711028 0.716196 0.727989 0.74464 0.740904 0.731127 0.711068
          0.720312 0.725919 0.729631 0.734365 0.746777 0.743782 0.735617 0.71348 0.730518 0.736156 0.738803 0.740687
          0.748868 0.747078 0.743293 0.737995 0.740564 0.742703 0.744096 0.744947 0.75009 0.748915 0.746813 0.744714
          0.744911 0.745751 0.746537 0.747025 0.739767 0.737418 0.733109 0.728122 0.723831 0.721575 0.724482 0.726529
          0.739416 0.736382 0.730474 0.724029 0.719365 0.719019 0.723164 0.725788 0.73934 0.735209 0.725878 0.715992
          0.71098 0.710869 0.720783 0.725251 0.740593 0.73673 0.728093 0.715294 0.710727 0.711679 0.722406 0.727873
          0.742697 0.739249 0.73067 0.711798 0.717124 0.725681 0.7309 0.733868 0.745219 0.742745 0.737255 0.728954
          0.731941 0.735633 0.738156 0.7396 0.747441 0.745906 0.742994 0.739792 0.740286 0.741689 0.7429 0.743618
          0.748701 0.747643 0.745829 0.744125 0.743943 0.744523 0.7452 0.74563 0.737419 0.734807 0.729967 0.724567
          0.718455 0.710545 0.718235 0.721648 0.737053 0.73342 0.725842 0.720232 0.715654 0.713138 0.718437 0.721139
          0.737048 0.73128 0.71239 0.710741 0.7108 0.710409 0.718353 0.720982 0.739066 0.735151 0.726545 0.718317
          0.71106 0.717783 0.724237 0.727004 0.741813 0.739079 0.7335 0.726455 0.725161 0.728762 0.732017 0.733745
          0.744599 0.742785 0.739365 0.735577 0.735265 0.736807 0.738382 0.73931 0.746829 0.745665 0.743642 0.741659
          0.741274 0.741859 0.742616 0.743103 0.74805 0.747203 0.745804 0.7445 0.74406 0.744277 0.7447 0.744999
          0.736117 0.733538 0.728771 0.723064 0.716504 0.709754 0.714995 0.718147 0.735969 0.732663 0.726246 0.719789
          0.713641 0.709946 0.714192 0.716292 0.736409 0.732024 0.722045 0.714259 0.710875 0.711354 0.714792 0.711442
          0.738654 0.735354 0.728657 0.721284 0.718835 0.721575 0.724421 0.725145 0.741663 0.739494 0.735449 0.731094
          0.729842 0.731172 0.732821 0.733706 0.744545 0.743174 0.740776 0.738367 0.73758 0.738083 0.738909 0.739445
          0.746734 0.745846 0.744363 0.742931 0.742325 0.742439 0.742823 0.743109 0.747901 0.747235 0.746148 0.745107
          0.744572 0.744535 0.744732 0.744905 0.735637 0.733103 0.728335 0.722687 0.717097 0.712586 0.714754 0.717432
          0.735638 0.732339 0.725432 0.718673 0.713183 0.70974 0.711527 0.715986 0.736272 0.731554 0.716747 0.710049
          0.710718 0.710633 0.710802 0.715486 0.738708 0.73539 0.727424 0.713578 0.719706 0.722262 0.724348 0.726364
          0.741855 0.739888 0.736041 0.731419 0.731446 0.732398 0.733563 0.734421 0.744759 0.743605 0.741586 0.739517
          0.73885 0.739041 0.739549 0.739939 0.746901 0.746173 0.744961 0.743764 0.743147 0.743068 0.743253 0.743429
          0.748023 0.747476 0.746581 0.745691 0.745144 0.744978 0.745038 0.745129 0.735787 0.733449 0.728994 0.723328
          0.718128 0.714734 0.715629 0.718653 0.736006 0.733183 0.727376 0.719554 0.713647 0.710016 0.710416 0.717782
          0.736945 0.733483 0.725024 0.710968 0.711015 0.709891 0.716255 0.721319 0.739276 0.736521 0.730124 0.717643
          0.721518 0.723613 0.726735 0.728878 0.742296 0.740591 0.737267 0.733125 0.732834 0.733553 0.734769 0.735637
          0.745104 0.7441 0.74234 0.740498 0.739806 0.739875 0.740301 0.740648 0.747172 0.746542 0.745487 0.744421
          0.743814 0.743662 0.743771 0.743901 0.748253 0.747779 0.746997 0.7462 0.745666 0.74545 0.745446 0.745497
          0.736167 0.734011 0.729871 0.724418 0.719391 0.718007 0.719644 0.721683 0.736538 0.734092 0.729135 0.721993
          0.714621 0.714083 0.718245 0.722025 0.737655 0.734959 0.729105 0.719752 0.710988 0.710564 0.720723 0.725104
          0.739875 0.73762 0.732943 0.726371 0.723837 0.725033 0.72886 0.731008 0.742729 0.741236 0.738444 0.735241
          0.734076 0.734566 0.735905 0.736804 0.745426 0.744516 0.742938 0.7413 0.740526 0.740556 0.740996 0.741347
          0.747429 0.746852 0.745887 0.744905 0.744313 0.744153 0.744252 0.744374 0.748479 0.748045 0.747328 0.746587
          0.746076 0.745856 0.745837 0.745876 0.736461 0.734364 0.730278 0.724708 0.719405 0.720031 0.722421 0.724162
          0.736866 0.734491 0.72954 0.721655 0.710851 0.716323 0.721989 0.72488 0.737993 0.73538 0.72959 0.719827
          0.711061 0.711988 0.723514 0.727504 0.740126 0.737823 0.732808 0.725228 0.723769 0.726152 0.730386 0.732508
          0.742929 0.741399 0.738448 0.734957 0.734223 0.735179 0.736731 0.737676 0.745603 0.744688 0.743078 0.741403
          0.740775 0.740967 0.741498 0.741879 0.747594 0.747026 0.746073 0.745109 0.744574 0.744472 0.744604 0.744738
          0.748636 0.748216 0.747521 0.746808 0.746328 0.746133 0.746127 0.74617 0.736586 0.734485 0.730405 0.725095
          0.721213 0.721853 0.724022 0.725536 0.73696 0.734501 0.72928 0.72136 0.716279 0.719942 0.724143 0.726407
          0.738006 0.735071 0.727749 0.712132 0.711064 0.71913 0.725989 0.728915 0.740069 0.737274 0.72978 0.711401
          0.721248 0.727387 0.731441 0.733363 0.74292 0.741168 0.737422 0.732093 0.733387 0.735436 0.737192 0.738152
          0.745643 0.744658 0.742856 0.740907 0.740639 0.741118 0.741754 0.742162 0.747656 0.747073 0.746084 0.745087
          0.744631 0.744609 0.744782 0.74493 0.748705 0.748285 0.747588 0.746879 0.746428 0.746263 0.746275 0.746325
        </DataArray>
        <DataArray type="Float32" Name="process rank" NumberOfComponents="1" format="ascii">
          0 0 0 0 0 0 0 0 0 0 0 0
          0 0 0 0 0 0 0 0 0 0 0 0
          0 0 0 0 0 0 0 0 0 0 0 0
          0 0 0 0 0 0 0 0 0 0 0 0
          0 0 0 0 0 0 0 0 0 0 0 0
          0 0 0 0 0 0 0 0 0 0 0 0
          0 0 0 0 0 0 0 0 0 0 0 0
          0 0 0 0 0 0 0 0 0 0 0 0
          0 0 0 0 0 0 0 0 0 0 0 0
          0 0 0 0 0 0 0 0 0 0 0 0
          0 0 0 0 0 0 0 0 0 0 0 0
          0 0 0 0 0 0 0 0 0 0 0 0
          0 0 0 0 0 0 0 0 0 0 0 0
          0 0 0 0 0 0 0 0 0 0 0 0
          0 0 0 0 0 0 0 0 0 0 0 0
          0 0 0 0 0 0 0 0 0 0 0 0
          0 0 0 0 0 0 0 0 0 0 0 0
          0 0 0 0 0 0 0 0 0 0 0 0
          0 0 0 0 0 0 0 0 0 0 0 0
          0 0 0 0 0 0 0 0 0 0 0 0
          0 0 0 0 0 0 0 0 0 0 0 0
          0 0 0 0 0 0 0 0 0 0 0 0
          0 0 0 0 0 0 0 0 0 0 0 0
          0 0 0 0 0 0 0 0 0 0 0 0
          0 0 0 0 0 0 0 0 0 0 0 0
          0 0 0 0 0 0 0 0 0 0 0 0
          0 0 0 0 0 0 0 0 0 0 0 0
          0 0 0 0 0 0 0 0 0 0 0 0
          0 0 0 0 0 0 0 0 0 0 0 0
          0 0 0 0 0 0 0 0 0 0 0 0
          0 0 0 0 0 0 0 0 0 0 0 0
          0 0 0 0 0 0 0 0 0 0 0 0
          0 0 0 0 0 0 0 0 0 0 0 0
          0 0 0 0 0 0 0 0 0 0 0 0
          0 0 0 0 0 0 0 0 0 0 0 0
          0 0 0 0 0 0 0 0 0 0 0 0
          0 0 0 0 0 0 0 0 0 0 0 0
          0 0 0 0 0 0 0 0 0 0 0 0
          0 0 0 0 0 0 0 0 0 0 0 0
          0 0 0 0 0 0 0 0 0 0 0 0
          0 0 0 0 0 0 0 0 0 0 0 0
          0 0 0 0 0 0 0 0 0 0 0 0
          0 0 0 0 0 0 0 0 0 0 0 0
          0 0 0 0 0 0 0 0 0 0 0 0
          0 0 0 0 0 0 0 0 0 0 0 0
          0 0 0 0 0 0 0 0 0 0 0 0
          0 0 0 0 0 0 0 0 0 0 0 0
          0 0 0 0 0 0 0 0 0 0 0 0
          0 0 0 0 0 0 0 0 0 0 0 0
          0 0 0 0 0 0 0 0 0 0 0 0
          0 0 0 0 0 0 0 0 0 0 0 0
          0 0 0 0 0 0 0 0 0 0 0 0
          0 0 0 0 0 0 0 0 0 0 0 0
          0 0 0 0 0 0 0 0 0 0 0 0
          0 0 0 0 0 0 0 0 0 0 0 0
          0 0 0 0 0 0 0 0 0 0 0 0
          0 0 0 0 0 0 0 0 0 0 0 0
          0 0 0 0 0 0 0 0 0 0 0 0
          0 0 0 0 0 0 0 0 0 0 0 0
          0 0 0 0 0 0 0 0 0 0 0 0
          0 0 0 0 0 0 0 0 0 0 0 0
          0 0 0 0 0 0 0 0 0 0 0 0
          0 0 0 0 0 0 0 0 0 0 0 0
          0 0 0 0 0 0 0 0 0 0 0 0
          0 0 0 0 0 0 0 0 0 0 0 0
          0 0 0 0 0 0 0 0 0 0 0 0
          0 0 0 0 0 0 0 0 0 0 0 0
          0 0 0 0 0 0 0 0 0 0 0 0
          0 0 0 0 0 0 0 0 0 0 0 0
          0 0 0 0 0 0 0 0 0 0 0 0
          0 0 0 0 0 0 0 0 0 0 0 0
          0 0 0 0 0 0 0 0 0 0 0 0
          0 0 0 0 0 0 0 0 0 0 0 0
          0 0 0 0 0 0 0 0 0 0 0 0
          0 0 0 0 0 0 0 0 0 0 0 0
          0 0 0 0 0 0 0 0 0 0 0 0
          0 0 0 0 0 0 0 0 0 0 0 0
          0 0 0 0 0 0 0 0 0 0 0 0
          0 0 0 0 0 0 0 0 0 0 0 0
          0 0 0 0 0 0 0 0 0 0 0 0
        </DataArray>
      </CellData>
      <Points>
        <DataArray type="Float32" Name="Coordinates" NumberOfComponents="3" format="ascii">
          -0.04 -0.04 -0.15 -0.03 -0.04 -0.15 -0.04 -0.03 -0.15 -0.03 -0.03 -0.15
          -0.04 -0.04 -0.14 -0.03 -0.04 -0.14 -0.04 -0.03 -0.14 -0.03 -0.03 -0.14
          -0.02 -0.04 -0.15 -0.02 -0.03 -0.15 -0.02 -0.04 -0.14 -0.02 -0.03 -0.14
          -0.01 -0.04 -0.15 -0.01 -0.03 -0.15 -0.01 -0.04 -0.14 -0.01 -0.03 -0.14
          -1.73472e-18 -0.04 -0.15 -1.73472e-18 -0.03 -0.15 -1.73472e-18 -0.04 -0.14 -1.73472e-18 -0.03 -0.14
          0.01 -0.04 -0.15 0.01 -0.03 -0.15 0.01 -0.04 -0.14 0.01 -0.03 -0.14
          0.02 -0.04 -0.15 0.02 -0.03 -0.15 0.02 -0.04 -0.14 0.02 -0.03 -0.14
          0.03 -0.04 -0.15 0.03 -0.03 -0.15 0.03 -0.04 -0.14 0.03 -0.03 -0.14
          0.04 -0.04 -0.15 0.04 -0.03 -0.15 0.04 -0.04 -0.14 0.04 -0.03 -0.14
          -0.04 -0.02 -0.15 -0.03 -0.02 -0.15 -0.04 -0.02 -0.14 -0.03 -0.02 -0.14
          -0.02 -0.02 -0.15 -0.02 -0.02 -0.14 -0.01 -0.02 -0.15 -0.01 -0.02 -0.14
          -1.73472e-18 -0.02 -0.15 -1.73472e-18 -0.02 -0.14 0.01 -0.02 -0.15 0.01 -0.02 -0.14
          0.02 -0.02 -0.15 0.02 -0.02 -0.14 0.03 -0.02 -0.15 0.03 -0.02 -0.14
          0.04 -0.02 -0.15 0.04 -0.02 -0.14 -0.04 -0.01 -0.15 -0.03 -0.01 -0.15
          -0.04 -0.01 -0.14 -0.03 -0.01 -0.14 -0.02 -0.01 -0.15 -0.02 -0.01 -0.14
          -0.01 -0.01 -0.15 -0.01 -0.01 -0.14 -1.73472e-18 -0.01 -0.15 -1.73472e-18 -0.01 -0.14
          0.01 -0.01 -0.15 0.01 -0.01 -0.14 0.02 -0.01 -0.15 0.02 -0.01 -0.14
          0.03 -0.01 -0.15 0.03 -0.01 -0.14 0.04 -0.01 -0.15 0.04 -0.01 -0.14
          -0.04 -1.73472e-18 -0.15 -0.03 -1.73472e-18 -0.15 -0.04 -1.73472e-18 -0.14 -0.03 -1.73472e-18 -0.14
          -0.02 -1.73472e-18 -0.15 -0.02 -1.73472e-18 -0.14 -0.01 -1.73472e-18 -0.15 -0.01 -1.73472e-18 -0.14
          -1.73472e-18 -1.73472e-18 -0.15 -1.73472e-18 -1.73472e-18 -0.14 0.01 -1.73472e-18 -0.15 0.01 -1.73472e-18 -0.14
          0.02 -1.73472e-18 -0.15 0.02 -1.73472e-18 -0.14 0.03 -1.73472e-18 -0.15 0.03 -1.73472e-18 -0.14
          0.04 -1.73472e-18 -0.15 0.04 -1.73472e-18 -0.14 -0.04 0.01 -0.15 -0.03 0.01 -0.15
          -0.04 0.01 -0.14 -0.03 0.01 -0.14 -0.02 0.01 -0.15 -0.02 0.01 -0.14
          -0.01 0.01 -0.15 -0.01 0.01 -0.14 -1.73472e-18 0.01 -0.15 -1.73472e-18 0.01 -0.14
          0.01 0.01 -0.15 0.01 0.01 -0.14 0.02 0.01 -0.15 0.02 0.01 -0.14
          0.03 0.01 -0.15 0.03 0.01 -0.14 0.04 0.01 -0.15 0.04 0.01 -0.14
          -0.04 0.02 -0.15 -0.03 0.02 -0.15 -0.04 0.02 -0.14 -0.03 0.02 -0.14
          -0.02 0.02 -0.15 -0.02 0.02 -0.14 -0.01 0.02 -0.15 -0.01 0.02 -0.14
          -1.73472e-18 0.02 -0.15 -1.73472e-18 0.02 -0.14 0.01 0.02 -0.15 0.01 0.02 -0.14
          0.02 0.02 -0.15 0.02 0.02 -0.14 0.03 0.02 -0.15 0.03 0.02 -0.14
          0.04 0.02 -0.15 0.04 0.02 -0.14 -0.04 0.03 -0.15 -0.03 0.03 -0.15
          -0.04 0.03 -0.14 -0.03 0.03 -0.14 -0.02 0.03 -0.15 -0.02 0.03 -0.14
          -0.01 0.03 -0.15 -0.01 0.03 -0.14 -1.73472e-18 0.03 -0.15 -1.73472e-18 0.03 -0.14
          0.01 0.03 -0.15 0.01 0.03 -0.14 0.02 0.03 -0.15 0.02 0.03 -0.14
          0.03 0.03 -0.15 0.03 0.03 -0.14 0.04 0.03 -0.15 0.04 0.03 -0.14
          -0.04 0.04 -0.15 -0.03 0.04 -0.15 -0.04 0.04 -0.14 -0.03 0.04 -0.14
          -0.02 0.04 -0.15 -0.02 0.04 -0.14 -0.01 0.04 -0.15 -0.01 0.04 -0.14
          -1.73472e-18 0.04 -0.15 -1.73472e-18 0.04 -0.14 0.01 0.04 -0.15 0.01 0.04 -0.14
          0.02 0.04 -0.15 0.02 0.04 -0.14 0.03 0.04 -0.15 0.03 0.04 -0.14
          0.04 0.04 -0.15 0.04 0.04 -0.14 -0.04 -0.04 -0.13 -0.03 -0.04 -0.13
          -0.04 -0.03 -0.13 -0.03 -0.03 -0.13 -0.02 -0.04 -0.13 -0.02 -0.03 -0.13
          -0.01 -0.04 -0.13 -0.01 -0.03 -0.13 -1.73472e-18 -0.04 -0.13 -1.73472e-18 -0.03 -0.13
          0.01 -0.04 -0.13 0.01 -0.03 -0.13 0.02 -0.04 -0.13 0.02 -0.03 -0.13
          0.03 -0.04 -0.13 0.03 -0.03 -0.13 0.04 -0.04 -0.13 0.04 -0.03 -0.13
          -0.04 -0.02 -0.13 -0.03 -0.02 -0.13 -0.02 -0.02 -0.13 -0.01 -0.02 -0.13
          -1.73472e-18 -0.02 -0.13 0.01 -0.02 -0.13 0.02 -0.02 -0.13 0.03 -0.02 -0.13
          0.04 -0.02 -0.13 -0.04 -0.01 -0.13 -0.03 -0.01 -0.13 -0.02 -0.01 -0.13
          -0.01 -0.01 -0.13 -1.73472e-18 -0.01 -0.13 0.01 -0.01 -0.13 0.02 -0.01 -0.13
          0.03 -0.01 -0.13 0.04 -0.01 -0.13 -0.04 -1.73472e-18 -0.13 -0.03 -1.73472e-18 -0.13
          -0.02 -1.73472e-18 -0.13 -0.01 -1.73472e-18 -0.13 -1.73472e-18 -1.73472e-18 -0.13 0.01 -1.73472e-18 -0.13
          0.02 -1.73472e-18 -0.13 0.03 -1.73472e-18 -0.13 0.04 -1.73472e-18 -0.13 -0.04 0.01 -0.13
          -0.03 0.01 -0.13 -0.02 0.01 -0.13 -0.01 0.01 -0.13 -1.73472e-18 0.01 -0.13
          0.01 0.01 -0.13 0.02 0.01 -0.13 0.03 0.01 -0.13 0.04 0.01 -0.13
          -0.04 0.02 -0.13 -0.03 0.02 -0.13 -0.02 0.02 -0.13 -0.01 0.02 -0.13
          -1.73472e-18 0.02 -0.13 0.01 0.02 -0.13 0.02 0.02 -0.13 0.03 0.02 -0.13
          0.04 0.02 -0.13 -0.04 0.03 -0.13 -0.03 0.03 -0.13 -0.02 0.03 -0.13
          -0.01 0.03 -0.13 -1.73472e-18 0.03 -0.13 0.01 0.03 -0.13 0.02 0.03 -0.13
          0.03 0.03 -0.13 0.04 0.03 -0.13 -0.04 0.04 -0.13 -0.03 0.04 -0.13
          -0.02 0.04 -0.13 -0.01 0.04 -0.13 -1.73472e-18 0.04 -0.13 0.01 0.04 -0.13
          0.02 0.04 -0.13 0.03 0.04 -0.13 0.04 0.04 -0.13 -0.04 -0.04 -0.12
          -0.03 -0.04 -0.12 -0.04 -0.03 -0.12 -0.03 -0.03 -0.12 -0.02 -0.04 -0.12
          -0.02 -0.03 -0.12 -0.01 -0.04 -0.12 -0.01 -0.03 -0.12 -1.73472e-18 -0.04 -0.12
          -1.73472e-18 -0.03 -0.12 0.01 -0.04 -0.12 0.01 -0.03 -0.12 0.02 -0.04 -0.12
          0.02 -0.03 -0.12 0.03 -0.04 -0.12 0.03 -0.03 -0.12 0.04 -0.04 -0.12
          0.04 -0.03 -0.12 -0.04 -0.02 -0.12 -0.03 -0.02 -0.12 -0.02 -0.02 -0.12
          -0.01 -0.02 -0.12 -1.73472e-18 -0.02 -0.12 0.01 -0.02 -0.12 0.02 -0.02 -0.12
          0.03 -0.02 -0.12 0.04 -0.02 -0.12 -0.04 -0.01 -0.12 -0.03 -0.01 -0.12
          -0.02 -0.01 -0.12 -0.01 -0.01 -0.12 -1.73472e-18 -0.01 -0.12 0.01 -0.01 -0.12
          0.02 -0.01 -0.12 0.03 -0.01 -0.12 0.04 -0.01 -0.12 -0.04 -1.73472e-18 -0.12
          -0.03 -1.73472e-18 -0.12 -0.02 -1.73472e-18 -0.12 -0.01 -1.73472e-18 -0.12 -1.73472e-18 -1.73472e-18 -0.12
          0.01 -1.73472e-18 -0.12 0.02 -1.73472e-18 -0.12 0.03 -1.73472e-18 -0.12 0.04 -1.73472e-18 -0.12
          -0.04 0.01 -0.12 -0.03 0.01 -0.12 -0.02 0.01 -0.12 -0.01 0.01 -0.12
          -1.73472e-18 0.01 -0.12 0.01 0.01 -0.12 0.02 0.01 -0.12 0.03 0.01 -0.12
          0.04 0.01 -0.12 -0.04 0.02 -0.12 -0.03 0.02 -0.12 -0.02 0.02 -0.12
          -0.01 0.02 -0.12 -1.73472e-18 0.02 -0.12 0.01 0.02 -0.12 0.02 0.02 -0.12
          0.03 0.02 -0.12 0.04 0.02 -0.12 -0.04 0.03 -0.12 -0.03 0.03 -0.12
          -0.02 0.03 -0.12 -0.01 0.03 -0.12 -1.73472e-18 0.03 -0.12 0.01 0.03 -0.12
          0.02 0.03 -0.12 0.03 0.03 -0.12 0.04 0.03 -0.12 -0.04 0.04 -0.12
          -0.03 0.04 -0.12 -0.02 0.04 -0.12 -0.01 0.04 -0.12 -1.73472e-18 0.04 -0.12
          0.01 0.04 -0.12 0.02 0.04 -0.12 0.03 0.04 -0.12 0.04 0.04 -0.12
          -0.04 -0.04 -0.11 -0.03 -0.04 -0.11 -0.04 -0.03 -0.11 -0.03 -0.03 -0.11
          -0.02 -0.04 -0.11 -0.02 -0.03 -0.11 -0.01 -0.04 -0.11 -0.01 -0.03 -0.11
          -1.73472e-18 -0.04 -0.11 -1.73472e-18 -0.03 -0.11 0.01 -0.04 -0.11 0.01 -0.03 -0.11
          0.02 -0.04 -0.11 0.02 -0.03 -0.11 0.03 -0.04 -0.11 0.03 -0.03 -0.11
          0.04 -0.04 -0.11 0.04 -0.03 -0.11 -0.04 -0.02 -0.11 -0.03 -0.02 -0.11
          -0.02 -0.02 -0.11 -0.01 -0.02 -0.11 -1.73472e-18 -0.02 -0.11 0.01 -0.02 -0.11
          0.02 -0.02 -0.11 0.03 -0.02 -0.11 0.04 -0.02 -0.11 -0.04 -0.01 -0.11
          -0.03 -0.01 -0.11 -0.02 -0.01 -0.11 -0.01 -0.01 -0.11 -1.73472e-18 -0.01 -0.11
          0.01 -0.01 -0.11 0.02 -0.01 -0.11 0.03 -0.01 -0.11 0.04 -0.01 -0.11
          -0.04 -1.73472e-18 -0.11 -0.03 -1.73472e-18 -0.11 -0.02 -1.73472e-18 -0.11 -0.01 -1.73472e-18 -0.11
          -1.73472e-18 -1.73472e-18 -0.11 0.01 -1.73472e-18 -0.11 0.02 -1.73472e-18 -0.11 0.03 -1.73472e-18 -0.11
          0.04 -1.73472e-18 -0.11 -0.04 0.01 -0.11 -0.03 0.01 -0.11 -0.02 0.01 -0.11
          -0.01 0.01 -0.11 -1.73472e-18 0.01 -0.11 0.01 0.01 -0.11 0.02 0.01 -0.11
          0.03 0.01 -0.11 0.04 0.01 -0.11 -0.04 0.02 -0.11 -0.03 0.02 -0.11
          -0.02 0.02 -0.11 -0.01 0.02 -0.11 -1.73472e-18 0.02 -0.11 0.01 0.02 -0.11
          0.02 0.02 -0.11 0.03 0.02 -0.11 0.04 0.02 -0.11 -0.04 0.03 -0.11
          -0.03 0.03 -0.11 -0.02 0.03 -0.11 -0.01 0.03 -0.11 -1.73472e-18 0.03 -0.11
          0.01 0.03 -0.11 0.02 0.03 -0.11 0.03 0.03 -0.11 0.04 0.03 -0.11