% Model:              Onedradial_solutes_zeroconc_diff.mph
% Version:            COMSOL 5.5.0.306
% Date:               Apr 20 2020, 16:17
% Dimension:          1
% Nodes:              1741
% Expressions:        49
% Description:        Liniengraph
% R                       Height                   Height                   Height                   Height                   Height                   Height                   Height                   Height                   Height                   Height                   Height                   Height                   Height                   Height                   Height                   Height                   Height                   Height                   Height                   Height                   Height                   Height                   Height                   Height                   Height                   Height                   Height                   Height                   Height                   Height                   Height                   Height                   Height                   Height                   Height                   Height                   Height                   Height                   Height                   Height                   Height                   Height                   Height                   Height                   Height                   Height                   Height                   Height                   Height
0                         0                        0                        0                        0                        0                        0                        0                        0                        0                        0                        0                        0                        0                        0                        0                        0                        0                        0                        0                        0                        0                        0                        0                        0                        0                        0                        0                        0                        0                        0                        0                        0                        0                        0                        0                        0                        0                        0                        0                        0                        0                        0                        0                        0                        0                        0                        0                        0                        0
3.333333333333348E-4      0.0010466833556388604    5.4401905113362375E-5    4.819359474297615E-5     4.3526538108947785E-5    3.9368494789756394E-5    3.5606476375535994E-5    3.2205483754275916E-5    2.9129942040014448E-5    2.63472957135979E-5      2.3830068795020716E-5    2.1553262223752608E-5    1.9493983665352837E-5    1.7631956019680244E-5    1.5947849558792996E-5    1.4424534591803675E-5    1.3046651756423554E-5    1.1800362694322821E-5    1.0673127148092755E-5    9.653631083927806E-6     8.731478937659229E-6     7.897431436718324E-6     7.143123685334321E-6     6.460921163494649E-6     5.843912305169938E-6     5.285805731113281E-6     4.7809270804134616E-6    4.3243203441782025E-6    3.911341602717598E-6     3.5378044953169107E-6    3.1998702576998873E-6    2.894215906259463E-6     2.6178336966099984E-6    2.367945993096709E-6     2.141751526106289E-6     1.9370476600496894E-6    1.7519582646700278E-6    1.5849032208641224E-6    1.4337383092868001E-6    1.2966055777326465E-6    1.1724696603818427E-6    1.0607506135995932E-6    9.59489408369343E-7      8.675977701358005E-7     7.848402492198406E-7     7.099534008003017E-7     6.420908072787515E-7     5.807756222511216E-7     5.253141196059648E-7     4.751362916056865E-7
6.666666666666661E-4      0.002093366711277721     1.0880381022672475E-4    9.63871894859523E-5      8.705307621789557E-5     7.873698957951279E-5     7.121295275107199E-5     6.441096750855183E-5     5.8259884080028897E-5    5.26945914271958E-5      4.766013759004143E-5     4.3106524447505216E-5    3.8987967330705674E-5    3.526391203936049E-5     3.189569911758599E-5     2.884906918360735E-5     2.6093303512847107E-5    2.3600725388645643E-5    2.134625429618551E-5     1.930726216785561E-5     1.7462957875318458E-5    1.5794862873436648E-5    1.4286247370668642E-5    1.2921842326989297E-5    1.1687824610339876E-5    1.0571611462226563E-5    9.561854160826923E-6     8.648640688356405E-6     7.822683205435196E-6     7.0756089906338215E-6    6.399740515399775E-6     5.788431812518926E-6     5.235667393219997E-6     4.735891986193418E-6     4.283503052212578E-6     3.874095320099379E-6     3.5039165293400555E-6    3.1698064417282447E-6    2.8674766185736003E-6    2.593211155465293E-6     2.3449393207636854E-6    2.1215012271991864E-6    1.918978816738686E-6     1.735195540271601E-6     1.5696804984396812E-6    1.4199068016006035E-6    1.284181614557503E-6     1.1615512445022433E-6    1.0506282392119295E-6    9.50272583211373E-7
0.0010000000000000009     0.003140050066916582     1.6320571534008714E-4    1.4458078422892846E-4    1.3057961432684335E-4    1.1810548436926919E-4    1.0681942912660798E-4    9.661645126282776E-5     8.738982612004334E-5     7.90418871407937E-5      7.149020638506215E-5     6.465978667125783E-5     5.848195099605851E-5     5.289586805904074E-5     4.784354867637899E-5     4.3273603775411026E-5    3.913995526927066E-5     3.5401088082968466E-5    3.201938144427827E-5     2.896089325178342E-5     2.619443681297769E-5     2.369229431015497E-5     2.1429371056002965E-5    1.9382763490483948E-5    1.7531736915509813E-5    1.5857417193339846E-5    1.4342781241240385E-5    1.2972961032534608E-5    1.1734024808152794E-5    1.0613413485950733E-5    9.599610773099662E-6     8.68264771877839E-6      7.853501089829995E-6     7.103837979290127E-6     6.425254578318868E-6     5.811142980149068E-6     5.255874794010084E-6     4.7547096625923675E-6    4.301214927860401E-6     3.88981673319794E-6      3.517408981145528E-6     3.18225184079878E-6      2.878468225108029E-6     2.6027933104074016E-6    2.354520747659522E-6     2.1298602024009053E-6    1.9262724218362548E-6    1.742326866753365E-6     1.5759423588178943E-6    1.4254088748170596E-6
0.0013333333333333357     0.003964140195863787     2.1507712576337342E-4    1.9053271583205114E-4    1.7208157484535508E-4    1.556428073306728E-4     1.407697189416772E-4     1.2732394100702272E-4    1.1516482874426154E-4    1.0416367442406068E-4    9.421185211848948E-5     8.521052837822937E-5     7.706919868608343E-5     6.97076977640617E-5      6.30496058185433E-5      5.702720085809549E-5     5.1579759862034394E-5    4.665257305077453E-5     4.219606268430556E-5     3.81654988838827E-5      3.451978294555855E-5     3.12223875250888E-5      2.824024211437628E-5     2.5543163735563596E-5    2.3103827623645014E-5    2.0897360899512095E-5    1.8901330052437567E-5    1.7096141534721023E-5    1.5463435689244473E-5    1.3986661820121675E-5    1.265064346000433E-5     1.1442243166426066E-5    1.0349569837186869E-5    9.361642133834824E-6     8.46738542936494E-6      7.658091588320615E-6     6.926343235379937E-6     6.265893216026201E-6     5.668264676652458E-6     5.1261124215155305E-6    4.635342955864358E-6     4.193663079627064E-6     3.7933282362639915E-6    3.4300360212835937E-6    3.1028552482408405E-6    2.806791073764979E-6     2.538497258889401E-6     2.2960885069540055E-6    2.076822209127583E-6     1.878444851635031E-6
0.001666666666666667      0.004788230324810992     2.6694853618665967E-4    2.3648464743517383E-4    2.1358353536386678E-4    1.9318013029207638E-4    1.747200087567464E-4     1.580314307512177E-4     1.4293983136847972E-4    1.2928546170732762E-4    1.1693349785191681E-4    1.057612700852009E-4     9.565644637610835E-5     8.651952746908267E-5     7.82556629607076E-5      7.078079794077995E-5     6.401956445479811E-5     5.7904058018580595E-5    5.2372743924332854E-5    4.7370104515981985E-5    4.284512907813941E-5     3.875248074002263E-5     3.5051113172749594E-5    3.1703563980643245E-5    2.867591833178021E-5     2.593730460568434E-5     2.3459878863634748E-5    2.1219322036907437E-5    1.919284657033615E-5     1.7359910154292615E-5    1.5701676146908998E-5    1.4201838614073742E-5    1.284563858454374E-5     1.1619446288379521E-5    1.050951628041101E-5     9.505040196492161E-6     8.59681167674979E-6      7.777076769460033E-6     7.035314425444515E-6     6.362408109833121E-6     5.753276930583187E-6     5.205074318455348E-6     4.708188247419953E-6     4.257278732159785E-6     3.851189748822159E-6     3.4837219451290523E-6    3.1507220959425473E-6    2.849850147154646E-6     2.577702059437271E-6     2.3314808284530025E-6
0.0020000000000000018     0.005612320453758197     3.1881994660994594E-4    2.8243657903829654E-4    2.550854958823785E-4     2.3071745325348E-4       2.0867029857181562E-4    1.8873892049541268E-4    1.7071483399269793E-4    1.544072489905946E-4     1.3965514358534414E-4    1.2631201179217244E-4    1.1424369406613327E-4    1.0333135717410364E-4    9.346172010287191E-5     8.453439502346442E-5     7.645936904756185E-5     6.915554298638666E-5     6.254942516436015E-5     5.657471014808127E-5     5.1170475210720275E-5    4.628257395495646E-5     4.186198423112291E-5     3.786396422572289E-5     3.424800903991541E-5     3.097724831185659E-5     2.801842767483193E-5     2.534250253909385E-5     2.2922257451427827E-5    2.0733158488463557E-5    1.8752708833813666E-5    1.696143406172142E-5     1.5341707331900612E-5    1.387725044292422E-5     1.2551647131457081E-5    1.1351988804663708E-5    1.0267280118119643E-5    9.288260322893867E-6     8.402364174236572E-6     7.598703798150712E-6     6.871210905302016E-6     6.216485557283631E-6     5.623048258575915E-6     5.084521443035978E-6     4.599524249403478E-6     4.160652816493126E-6     3.7629469329956936E-6    3.4036117873552863E-6    3.078581909746959E-6     2.784516805270974E-6
0.0023333333333333366     0.006181340920789071     3.6838562168659873E-4    3.2634600585408255E-4    2.9474275381728926E-4    2.6658629616845003E-4    2.411115470295048E-4     2.180815067196352E-4     1.9725527786973964E-4    1.7841240911058712E-4    1.613668449828396E-4     1.4594930271323516E-4    1.32004765473607E-4      1.1939592534439391E-4    1.0799188996014203E-4    9.767666456334087E-5     8.834624229508795E-5     7.990691571125349E-5     7.227376763197362E-5     6.537018434699002E-5     5.912577172639333E-5     5.347796540513794E-5     4.837012191338841E-5     4.375054356562625E-5     3.9572428348409416E-5    3.579317379973649E-5     3.237435560627389E-5     2.928241363317653E-5     2.6485901374250465E-5    2.3956470761002018E-5    2.166812756017919E-5     1.9598369548412604E-5    1.7726829438630883E-5    1.6034698329059454E-5    1.4503008153586364E-5    1.3116843353583235E-5    1.1863498883504589E-5    1.0732273829811007E-5    9.70865017710833E-6      8.780047822886289E-6     7.939454597539101E-6     7.182941006682275E-6     6.497243947230297E-6     5.8749945362095595E-6    5.314596405792293E-6     4.807495053357796E-6     4.347959271210125E-6     3.932759525947122E-6     3.557198371380767E-6     3.2174159873412484E-6
0.002666666666666668      0.006750361387819944     4.179512967632514E-4     3.702554326698685E-4     3.3440001175219996E-4    3.024551390834201E-4     2.7355279548719395E-4    2.474240929438577E-4     2.237957217467813E-4     2.0241756923057962E-4    1.8307854638033506E-4    1.6558659363429787E-4    1.497658368810807E-4     1.3546049351468418E-4    1.2252205981741214E-4    1.1081893410321732E-4    1.0023311554261404E-4    9.065828843612032E-5     8.199811009958706E-5     7.416565854589877E-5     6.708106824206638E-5     6.067335685531942E-5     5.48782595956539E-5      4.963712290552961E-5     4.4896847656903414E-5    4.0609099287616395E-5    3.6730283537715844E-5    3.322232472725921E-5     3.00495452970731E-5      2.7179783033540476E-5    2.4583546286544712E-5    2.2235305035103784E-5    2.0111951545361156E-5    1.8192146215194687E-5    1.6454369175715645E-5    1.4881697902502762E-5    1.3459717648889533E-5    1.2176287336728148E-5    1.1014936179980089E-5    9.961391847621863E-6     9.007698289776185E-6     8.149396456080919E-6     7.371439635884678E-6     6.66546762938314E-6      6.029668562181108E-6     5.4543372902224656E-6    4.932971609424556E-6     4.461907264538957E-6     4.035814833014574E-6     3.6503151694115224E-6
0.0030000000000000027     0.007319381854850818     4.6751697183990414E-4    4.1416485948565454E-4    3.7405726968711066E-4    3.383239819983901E-4     3.0599404394488313E-4    2.767666791680802E-4     2.50336165623823E-4      2.2642272935057215E-4    2.0479024777783053E-4    1.852238845553606E-4     1.6752690828855443E-4    1.5152506168497444E-4    1.3705222967468224E-4    1.2396120364309378E-4    1.1211998879014014E-4    1.0140966116098717E-4    9.172245256720051E-5     8.296113274480752E-5     7.503636475773944E-5     6.786874830550089E-5     6.13863972779194E-5      5.552370224543297E-5     5.022126696539741E-5     4.54250247754963E-5      4.10862114691578E-5      3.7162235821341886E-5    3.361318921989574E-5     3.0403095306078933E-5    2.7498965012910235E-5    2.4872240521794967E-5    2.2497073652091426E-5    2.034959410132992E-5     1.840573019784493E-5     1.664655245142229E-5     1.5055936414274476E-5    1.362030084364529E-5     1.2321222182851848E-5    1.114273587235744E-5     1.007594198201327E-5     9.115851905479562E-6     8.24563532453906E-6      7.455940722556722E-6     6.744740718569922E-6     6.101179527087135E-6     5.517983947638987E-6     4.991055003130794E-6     4.514431294648382E-6     4.083214351481797E-6
0.0033333333333333375     0.00768349184959222      5.149729711915261E-4     4.5620551131112435E-4    4.120267337270173E-4     3.726662642748667E-4     3.3705460885531164E-4    3.048604594662255E-4     2.7574706130596303E-4    2.4940624169312664E-4    2.2557790987281438E-4    2.0402542206280478E-4    1.84532077303786E-4      1.669059297785243E-4     1.509640026592437E-4     1.3654414464887607E-4    1.235009625783168E-4     1.1170346078520768E-4    1.010329318311911E-4     9.138227588966173E-5     8.265308776927332E-5     7.475790744886887E-5     6.761755183851184E-5     6.11597516548339E-5      5.531908159164176E-5     5.003598685035718E-5     4.525675330180164E-5     4.0934466257381166E-5    3.702516616957541E-5     3.3489224931861146E-5    3.0290305008791074E-5    2.7396949439005673E-5    2.47806861532151E-5      2.241522187186515E-5     2.02740421663174E-5      1.833629586501637E-5     1.6584221239118133E-5    1.5002857671498165E-5    1.3571912770798135E-5    1.2273802322859787E-5    1.1098722143113217E-5    1.0041175457265024E-5    9.082625505158053E-6     8.212771855905075E-6     7.429379820530632E-6     6.72049242609951E-6      6.078098465334509E-6     5.49768248009374E-6      4.972678071708203E-6     4.497689558032378E-6
0.0036666666666666688     0.00804760184433362      5.62428970543148E-4      4.982461631365941E-4     4.4999619776692386E-4    4.0700854655134324E-4    3.6811517376574015E-4    3.3295423976437074E-4    3.01157956988103E-4      2.7238975403568106E-4    2.4636557196779823E-4    2.2282695957024889E-4    2.0153724631901754E-4    1.8228679787207414E-4    1.648757756438051E-4     1.4912708565465834E-4    1.3488193636649343E-4    1.2199726040942817E-4    1.1034341109518167E-4    9.980341903451594E-5     9.02698107808072E-5      8.164706659223686E-5     7.384870639910428E-5     6.679580106423484E-5     6.04168962178861E-5      5.464694892521806E-5     4.942729513444548E-5     4.470669669342044E-5     4.0437143119255094E-5    3.657535455764336E-5     3.308164500467191E-5     2.992165835621638E-5     2.7064298654338775E-5    2.4480849642400377E-5    2.214235413478987E-5     2.0026039278610452E-5    1.8112506063961785E-5    1.6385414499351038E-5    1.4822603358744417E-5    1.3404868773362133E-5    1.2121502304213163E-5    1.0966499009050484E-5    9.919615685777044E-6     8.969602989253427E-6     8.114018922491341E-6     7.339805325111885E-6     6.6382129830300294E-6    6.004309957056686E-6     5.430924848768023E-6     4.9121647645829575E-6
0.0040000000000000036     0.008411711839075022     6.098849698947701E-4     5.402868149620638E-4     4.8796566180683046E-4    4.413508288278198E-4     3.9917573867616867E-4    3.6104802006251604E-4    3.2656885267024296E-4    2.9537326637823553E-4    2.671532340627821E-4     2.4162849707769302E-4    2.185424153342491E-4     1.97667665965624E-4      1.7878754862836653E-4    1.6171002666044064E-4    1.4626291015467009E-4    1.3229106003364866E-4    1.1965389035917224E-4    1.0822456217937015E-4    9.788653379234108E-5     8.853622573560484E-5     8.007986095969673E-5     7.243185047363578E-5     6.551471084413045E-5     5.9257911000078934E-5    5.359783696708932E-5     4.847892712945972E-5     4.384912006893477E-5     3.966148418342557E-5     3.587298500055275E-5     3.2446367273427085E-5    2.934791115546245E-5     2.6546477412935603E-5    2.4010666103262346E-5    2.1715782692204534E-5    1.964079088880544E-5     1.776797132720391E-5     1.6073293946690702E-5    1.453593522386448E-5     1.314428246531311E-5     1.1891822560835946E-5    1.0756605866396036E-5    9.726434122601778E-6     8.79865802445205E-6      7.95911822412426E-6      7.198327500725551E-6     6.510937434019632E-6     5.889171625827843E-6     5.326639971133538E-6
0.004333333333333338      0.008634234151693237     6.554033393886338E-4     5.80611144810648E-4      5.243850240735349E-4     4.7429108904196505E-4    4.289682579071326E-4     3.879948735922228E-4     3.5094235009928976E-4    3.1741847823252333E-4    2.8709224112525103E-4    2.5966246297020164E-4    2.3485334942607196E-4    2.1242061108817787E-4    1.921313743189065E-4     1.7377926983768905E-4    1.5717925638859996E-4    1.421646159438804E-4     1.2858426989726234E-4    1.1630191265728805E-4    1.0519230454240478E-4    9.514413538425612E-5     8.605662902728782E-5     7.783780848839179E-5     7.040440747074646E-5     6.36806308309597E-5      5.759811674402416E-5     5.209715650820146E-5     4.7121803209160897E-5    4.262162266968063E-5     3.855036878047242E-5     3.486800523956908E-5     3.1538295335382806E-5    2.8527775798326503E-5    2.5802704231220578E-5    2.3336542700164306E-5    2.110668402638914E-5     1.9094085127111012E-5    1.7272924480611862E-5    1.5620825753195313E-5    1.4125308202156577E-5    1.2779369795718035E-5    1.1559425751399756E-5    1.0452367912533908E-5    9.455346860334163E-6     8.553147645010265E-6     7.735575398452734E-6     6.9968818819485944E-6    6.328710500996932E-6     5.724194252942055E-6
0.00466666666666667       0.008856756464311452     7.009217088824974E-4     6.209354746592323E-4     5.608043863402392E-4     5.072313492561102E-4     4.5876077713809656E-4    4.1494172712192956E-4    3.7531584752833645E-4    3.3946369008681107E-4    3.0703124818772E-4       2.7769642886271023E-4    2.511642835178948E-4     2.2717355621073166E-4    2.0547520000944644E-4    1.858485130149374E-4     1.680956026225298E-4     1.520381718541121E-4     1.3751464943535243E-4    1.2437926313520596E-4    1.1249807529246847E-4    1.0175204503290737E-4    9.20333970948789E-5      8.324376650314778E-5     7.529410409736247E-5     6.810335066184045E-5     6.1598396520959E-5       5.571538588694319E-5     5.039448634938702E-5     4.558176115593569E-5     4.1227752560392086E-5    3.7289643205711066E-5    3.372867951530316E-5     3.05090741837174E-5      2.7594742359178802E-5    2.4957302708124075E-5    2.2572577163972834E-5    2.0420198927018112E-5    1.847255501453302E-5     1.6705716282526144E-5    1.510633393900004E-5     1.3666917030600122E-5    1.2362245636403475E-5    1.1178301702466036E-5    1.0112035696216274E-5    9.14717706589627E-6      8.272823296179916E-6     7.482826329877556E-6     6.76824937616602E-6      6.1217485347505706E-6
0.0050000000000000044     0.009079278776929668     7.46440078376361E-4      6.612598045078165E-4     5.972237486069436E-4     5.401716094702554E-4     4.885532963690606E-4     4.418885806516363E-4     3.996893449573832E-4     3.6150890194109887E-4    3.2697025525018893E-4    2.957303947552188E-4     2.6747521760971766E-4    2.4192650133328546E-4    2.1881902569998642E-4    1.9791775619218578E-4    1.7901194885645968E-4    1.619117277643438E-4     1.4644502897344253E-4    1.3245661361312386E-4    1.1980384604253218E-4    1.0835995468155864E-4    9.801016516246998E-5     8.864972451790377E-5     8.018380072397848E-5     7.25260704927212E-5      6.559867629789384E-5     5.9333615265684926E-5    5.366716948961315E-5     4.854189964219075E-5     4.3905136340311756E-5    3.971128117185306E-5     3.591906369522352E-5     3.24903725691083E-5      2.938678048713703E-5     2.6578062716083847E-5    2.403847030155653E-5     2.1746312726925215E-5    1.9672185548454176E-5    1.779060681185698E-5     1.6087359675843505E-5    1.4554464265482209E-5    1.3165065521407195E-5    1.1904235492398165E-5    1.0768724532098386E-5    9.741206486782275E-6     8.810071193907098E-6     7.968770777806517E-6     7.20778825133511E-6      6.519302816559087E-6
0.005333333333333339      0.00921115880494593      7.901726172524502E-4     7.000023262946977E-4     6.322144991496399E-4     5.718197318896461E-4     5.171771538260738E-4     4.6777839857372374E-4    4.2310675090265144E-4    3.826893532212173E-4     3.461271211739697E-4     3.130569479614515E-4     2.8314632791079955E-4    2.561007373660439E-4     2.3163941733396517E-4    2.0951356293605756E-4    1.8950008302596335E-4    1.7139797684354849E-4    1.550250993558149E-4     1.4021711639590476E-4    1.2682303561537198E-4    1.1470865795025926E-4    1.0375248444777023E-4    9.384362469579282E-5     8.488169072766432E-5     7.677530168886636E-5     6.944203843482831E-5     6.280991352591476E-5     5.681147604827663E-5     5.138592160420699E-5     4.647749531535061E-5     4.203792647598786E-5     3.8023526389739426E-5    3.4393950872223476E-5    3.110852275551943E-5     2.813524600800741E-5     2.5446861858955856E-5    2.3020407197503116E-5    2.0824757712505145E-5    1.8832940434818068E-5    1.7029903653988263E-5    1.5407195916547623E-5    1.393639317147173E-5     1.2601693602148284E-5    1.1399653744211603E-5    1.0311934021076426E-5    9.326244663494353E-6     8.435653244405586E-6     7.630085467285824E-6     6.901262362231841E-6
0.0056666666666666705     0.009343038832962192     8.339051561285394E-4     7.387448480815788E-4     6.672052496923362E-4     6.034678543090367E-4     5.45801011283087E-4      4.936682164958111E-4     4.465241568479196E-4     4.038698045013358E-4     3.6528398709775037E-4    3.3038350116768424E-4    2.9881743821188144E-4    2.7027497339880235E-4    2.444598089679439E-4     2.2110936967992931E-4    1.9998821719546703E-4    1.8088422592275313E-4    1.6360516973818725E-4    1.4797761917868566E-4    1.3384222518821176E-4    1.2105736121895986E-4    1.0949480373307047E-4    9.903752487368185E-5     8.957958073135014E-5     8.102453288501152E-5     7.328540057176279E-5     6.628621178614458E-5     5.99557826069401E-5      5.422994356622322E-5     4.904985429038947E-5     4.4364571780122656E-5    4.0127989084255325E-5    3.629752917533865E-5     3.283026502390182E-5     2.9692429299930968E-5    2.6855253416355178E-5    2.4294501668081013E-5    2.1977329876556114E-5    1.9875274057779155E-5    1.7972447632133017E-5    1.6259927567613035E-5    1.4707720821536266E-5    1.32991517118984E-5      1.2030582956324818E-5    1.0882661555370574E-5    9.842418133081605E-6     8.902535711004657E-6     8.052382683236538E-6     7.283221907904595E-6
0.006000000000000005      0.009474918860978454     8.776376950046286E-4     7.7748736986846E-4       7.021960002350325E-4     6.351159767284274E-4     5.744248687401003E-4     5.195580344178985E-4     4.699415627931878E-4     4.2505025578145424E-4    3.8444085302153107E-4    3.477100543739169E-4     3.144885485129633E-4     2.844492094315608E-4     2.5728020060192264E-4    2.327051764238011E-4     2.104763513649707E-4     1.9037047500195778E-4    1.7218524012055963E-4    1.5573812196146655E-4    1.4086141476105153E-4    1.2740606448766046E-4    1.1523712301837073E-4    1.042314250515709E-4     9.427747073503596E-5     8.527376408115668E-5     7.712876270869725E-5     6.97625100463744E-5      6.310008916560357E-5     5.707396552823945E-5     5.162221326542833E-5     4.6691217084257455E-5    4.223245177877123E-5     3.8201107478453826E-5    3.455200729228422E-5     3.124961259185453E-5     2.82636449737545E-5      2.556859613865891E-5     2.3129902040607084E-5    2.0917607680740244E-5    1.8914991610277775E-5    1.711265921867845E-5     1.5479048471600803E-5    1.3996609821648519E-5    1.2661512168438033E-5    1.1453389089664724E-5    1.0358591602668858E-5    9.369418177603727E-6     8.474679899187252E-6     7.665181453577348E-6
0.00633333333333334       0.00955138500642507      9.197190122042813E-4     8.147673663324082E-4     7.358658727419548E-4     6.655694033878227E-4     6.019681950589758E-4     5.444705294907543E-4     4.924749776340844E-4     4.4543115945485035E-4    4.0287456031223265E-4    3.6438254200897314E-4    3.2956808516753787E-4    2.9808837775336506E-4    2.696166311694143E-4     2.438632493193037E-4     2.20568565623025E-4      1.9949862468012565E-4    1.804414187223264E-4     1.632056710335364E-4     1.4761563469562302E-4    1.3351510854269844E-4    1.2076267367918773E-4    1.092292590050225E-4     9.879801855016719E-5     8.936258969619589E-5     8.082704062958866E-5     7.310758044422634E-5     6.612570020913977E-5     5.981062747497754E-5     5.409746754082734E-5     4.893003330938981E-5     4.425747246861407E-5     4.00328266268247E-5      3.6208754792534826E-5    3.274801365829557E-5     2.9618871353190024E-5    2.679459408002481E-5     2.423896440174923E-5     2.192059362844049E-5     1.9821955934329902E-5    1.7933200774011527E-5    1.622125870806417E-5     1.4667739710645244E-5    1.3268624352653546E-5    1.2002571952173417E-5    1.0855279905686684E-5    9.818676158910947E-6     8.88103567545103E-6      8.03272228698697E-6
0.006666666666666671      0.009627851151871685     9.618003294039339E-4     8.520473627963562E-4     7.69535745248877E-4      6.960228300472178E-4     6.295115213778514E-4     5.693830245636102E-4     5.150083924749809E-4     4.6581206312824646E-4    4.2130826760293413E-4    3.810550296440293E-4     3.446476218221124E-4     3.1172754607516933E-4    2.819530617369059E-4     2.550213222148063E-4     2.3066077988107928E-4    2.0862677435829347E-4    1.8869759732409317E-4    1.7067322010560622E-4    1.543698546301945E-4     1.396241525977364E-4     1.2628822434000475E-4    1.1422709295847408E-4    1.0331856636529841E-4    9.345141531123507E-5     8.452531855048006E-5     7.645265084207826E-5     6.915131125267597E-5     6.254728942171562E-5     5.6572721816226344E-5    5.1168849534522145E-5    4.6282493158456897E-5    4.186454577519557E-5     3.786550229278543E-5     3.4246414724736605E-5    3.0974097732625546E-5    2.80205920213907E-5      2.534802676289137E-5     2.292357957614073E-5     2.072892025838203E-5     1.8753742329344605E-5    1.6963468944527534E-5    1.5338869599641967E-5    1.3875736536869055E-5    1.255175481468211E-5     1.135196820870451E-5     1.0267934140218168E-5    9.287391451714808E-6     8.400263120396593E-6
0.007000000000000006      0.0097043172973183       0.0010038816466035865    8.893273592603043E-4     8.032056177557993E-4     7.264762567066131E-4     6.57054847696727E-4      5.94295519636466E-4      5.375418073158774E-4     4.861929668016426E-4     4.3974197489363566E-4    3.977275172790855E-4     3.5972715847668697E-4    3.253667143969736E-4     2.9428949230439754E-4    2.661793951103089E-4     2.4075299413913356E-4    2.1775492403646132E-4    1.9695377592585995E-4    1.7814076917767606E-4    1.61124074564766E-4      1.4573319665277438E-4    1.3181377500082176E-4    1.1922492691192565E-4    1.0783911418042965E-4    9.754024092627426E-5     8.822359647137147E-5     7.97977212399302E-5      7.217692229621216E-5     6.52839513684537E-5      5.904797609162535E-5     5.340766575965449E-5     4.830751384829973E-5     4.369626492356644E-5     3.952224979303604E-5     3.574481579117765E-5     3.232932411206107E-5     2.9246589962756593E-5    2.6457089124033512E-5    2.3926565523840973E-5    2.1635884582434156E-5    1.9574283884677683E-5    1.7705679180990898E-5    1.600999948863869E-5     1.4482848721084567E-5    1.3100937677190801E-5    1.1848656511722336E-5    1.0717192121525388E-5    9.693747227978586E-6     8.767803953806215E-6