% Model:              Onedradial_solutes_zeroconc.mph
% Version:            COMSOL 5.5.0.306
% Date:               Apr 20 2020, 16:30
% Dimension:          1
% Nodes:              1741
% Expressions:        49
% Description:        Liniengraph
% R                       Height                   Height                   Height                   Height                   Height                   Height                   Height                   Height                   Height                   Height                   Height                   Height                   Height                   Height                   Height                   Height                   Height                   Height                   Height                   Height                   Height                   Height                   Height                   Height                   Height                   Height                   Height                   Height                   Height                   Height                   Height                   Height                   Height                   Height                   Height                   Height                   Height                   Height                   Height                   Height                   Height                   Height                   Height                   Height                   Height                   Height                   Height                   Height                   Height
0                         0                        0                        0                        0                        0                        0                        0                        0                        0                        0                        0                        0                        0                        0                        0                        0                        0                        0                        0                        0                        0                        0                        0                        0                        0                        0                        0                        0                        0                        0                        0                        0                        0                        0                        0                        0                        0                        0                        0                        0                        0                        0                        0                        0                        0                        0                        0                        0                        0
3.333333333333348E-4      0.0010514388152908242    6.186875524422955E-5     5.62173717682614E-5      5.271567107758774E-5     4.974091538716036E-5     4.715090012511687E-5     4.4905918765113154E-5    4.304275394275665E-5     4.157600547229983E-5     4.042367661456635E-5     3.952701407013543E-5     3.889376545863791E-5     3.857629704822997E-5     3.859809365376362E-5     3.892244830137077E-5     3.942933709189318E-5     4.028738843784351E-5     4.165934705900103E-5     4.3563420775893935E-5    4.593657751292927E-5     4.9068480650828104E-5    5.3915166576021776E-5    6.148370787955014E-5     7.107871276487556E-5     8.202890305687377E-5     1.0472542444968461E-4    1.6269537583314713E-4    2.594130526171536E-4     2.0414643571406175E-4    1.6830041136623266E-4    1.4373067304537516E-4    1.2581802831688056E-4    1.1229183407972048E-4    1.0172571874751827E-4    9.324907730261695E-5     8.632918311025011E-5     8.057620517555607E-5     7.569076030722389E-5     7.147890749239644E-5     6.78626085694898E-5      6.46938399607094E-5      6.189508474233223E-5     5.940758942804856E-5     5.718155283240387E-5     5.5178973751448526E-5    5.3363364804695563E-5    5.171405111504347E-5     5.020466394636838E-5     4.881308658874523E-5
6.666666666666661E-4      0.0021028776305816485    1.237375104884591E-4     1.124347435365228E-4     1.0543134215517548E-4    9.948183077432072E-5     9.430180025023375E-5     8.981183753022631E-5     8.60855078855133E-5      8.315201094459966E-5     8.08473532291327E-5      7.905402814027085E-5     7.778753091727582E-5     7.715259409645994E-5     7.719618730752723E-5     7.784489660274154E-5     7.885867418378636E-5     8.057477687568702E-5     8.331869411800207E-5     8.712684155178787E-5     9.187315502585854E-5     9.813696130165621E-5     1.0783033315204355E-4    1.2296741575910027E-4    1.4215742552975113E-4    1.6405780611374754E-4    2.0945084889936922E-4    3.2539075166629426E-4    5.188261052343072E-4     4.082928714281235E-4     3.366008227324653E-4     2.8746134609075033E-4    2.516360566337611E-4     2.2458366815944096E-4    2.0345143749503654E-4    1.864981546052339E-4     1.7265836622050023E-4    1.6115241035111213E-4    1.5138152061444779E-4    1.4295781498479287E-4    1.357252171389796E-4     1.293876799214188E-4     1.2379016948466445E-4    1.1881517885609712E-4    1.1436310566480774E-4    1.1035794750289705E-4    1.0672672960939113E-4    1.0342810223008694E-4    1.0040932789273676E-4    9.762617317749046E-5
0.0010000000000000009     0.003154316445872473     1.8560626573268867E-4    1.686521153047842E-4     1.5814701323276322E-4    1.492227461614811E-4     1.4145270037535062E-4    1.3471775629533947E-4    1.2912826182826995E-4    1.247280164168995E-4     1.2127102984369907E-4    1.1858104221040628E-4    1.1668129637591374E-4    1.1572889114468993E-4    1.1579428096129086E-4    1.1676734490411231E-4    1.1828801127567956E-4    1.2086216531353053E-4    1.2497804117700311E-4    1.306902623276818E-4     1.3780973253878782E-4    1.4720544195248432E-4    1.6174549972806533E-4    1.8445112363865042E-4    2.132361382946267E-4     2.4608670917062133E-4    3.1417627334905384E-4    4.8808612749944144E-4    7.782391578514609E-4     6.124393071421853E-4     5.04901234098698E-4      4.311920191361255E-4     3.7745408495064173E-4    3.3687550223916144E-4    3.051771562425548E-4     2.7974723190785084E-4    2.5898754933075034E-4    2.417286155266682E-4     2.2707228092167168E-4    2.1443672247718933E-4    2.0358782570846943E-4    1.940815198821282E-4     1.856852542269967E-4     1.7822276828414568E-4    1.7154465849721163E-4    1.6553692125434558E-4    1.600900944140867E-4     1.5514215334513042E-4    1.5061399183910514E-4    1.464392597662357E-4
0.0013333333333333357     0.003979600945471463     2.44344746782856E-4      2.22006792327631E-4      2.081587235286173E-4     1.9639213305352576E-4    1.8614480296604864E-4    1.7725894892329795E-4    1.6987961963921833E-4    1.6406406369928788E-4    1.5948760734412685E-4    1.5591740176973168E-4    1.5338296956915015E-4    1.5208924667933467E-4    1.5212613178570847E-4    1.5334781531342294E-4    1.5528393638871988E-4    1.585883440290506E-4     1.6389268545786856E-4    1.7126772787156994E-4    1.8046684733940562E-4    1.9260085145467623E-4    2.113360443528333E-4     2.4049807828612076E-4    2.7733120163718017E-4    3.1927339570076243E-4    4.0541419559838237E-4    6.201381854615455E-4     9.426959872011873E-4     7.526712407213687E-4     6.265969316299642E-4     5.388772691067176E-4     4.7430882833567766E-4    4.251647728483013E-4     3.865566303442053E-4     3.5543397193456934E-4    3.2990712694683493E-4    3.086133893043736E-4     2.9056028039828644E-4    2.747990238962329E-4     2.613287054668341E-4     2.4948153254929694E-4    2.3899717508380248E-4    2.2966203494437584E-4    2.2129406139349616E-4    2.1375409168222561E-4    2.0690852898309708E-4    2.006803906580206E-4     1.9497282891565445E-4    1.8970648977958366E-4
0.001666666666666667      0.004804885445070453     3.0308322783302333E-4    2.753614693504778E-4     2.5817043382447136E-4    2.4356151994557043E-4    2.3083690555674666E-4    2.198001415512564E-4     2.1063097745016669E-4    2.0340011098167625E-4    1.9770418484455464E-4    1.9325376132905704E-4    1.9008464276238653E-4    1.8844960221397943E-4    1.8845798261012608E-4    1.8992828572273355E-4    1.9227986150176018E-4    1.9631452274457062E-4    2.0280732973873398E-4    2.1184519341545808E-4    2.2312396214002343E-4    2.3799626095686812E-4    2.6092658897760126E-4    2.965450329335911E-4     3.414262649797336E-4     3.924600822309035E-4     4.966521178477109E-4     7.521902434236495E-4     0.0011071528165509138    8.929031743005522E-4     7.482926291612304E-4     6.465625190773095E-4     5.711635717207136E-4     5.134540434574412E-4     4.6793610444585573E-4    4.3112071196128784E-4    4.008267045629195E-4     3.754981630820789E-4     3.540482798749012E-4     3.3516132531527645E-4    3.1906958522519876E-4    3.048815452164656E-4     2.9230909594060825E-4    2.81101301604606E-4      2.7104346428978067E-4    2.6197126211010565E-4    2.537269635521074E-4     2.462186279709107E-4     2.3933166599220376E-4    2.329737197929316E-4
0.0020000000000000018     0.005630169944669443     3.6182170888319066E-4    3.287161463733246E-4     3.081821441203254E-4     2.907309068376151E-4     2.755290081474447E-4     2.623413341792149E-4     2.5138233526111507E-4    2.4273615826406463E-4    2.3592076234498245E-4    2.3059012088838242E-4    2.2678631595562292E-4    2.248099577486242E-4     2.247898334345437E-4     2.2650875613204418E-4    2.292757866148005E-4     2.3404070146009067E-4    2.4172197401959943E-4    2.524226589593462E-4     2.6578107694064123E-4    2.8339167045906004E-4    3.105171336023692E-4     3.525919875810614E-4     4.055213283222871E-4     4.656467687610446E-4     5.878900400970394E-4     8.842423013857536E-4     0.0012716096459006402    0.0010331351078797357    8.699883266924967E-4     7.542477690479015E-4     6.680183151057496E-4     6.017433140665811E-4     5.493155785475062E-4     5.068074519880063E-4     4.717462821790041E-4     4.4238293685978426E-4    4.175362793515159E-4     3.9552362673432E-4       3.7681046498356347E-4    3.6028155788363436E-4    3.4562101679741405E-4    3.3254056826483616E-4    3.2079286718606517E-4    3.1018843253798566E-4    3.005453981211178E-4     2.917568652838009E-4     2.8369050306875307E-4    2.7624094980627955E-4
0.0023333333333333366     0.006198564455985693     4.17720004013009E-4      3.7947434501912057E-4    3.557422909224685E-4     3.355697755217808E-4     3.179937984389989E-4     3.0274157567344287E-4    2.9006037799952667E-4    2.800467835527186E-4     2.7214313427204875E-4    2.6594883427057966E-4    2.615109817804024E-4     2.591740408812782E-4     2.5908281945652954E-4    2.609854991733849E-4     2.640894500636341E-4     2.694745273546507E-4     2.7818612477547834E-4    2.9034185093710133E-4    3.055271971910693E-4     3.2553773003638024E-4    3.5630271456477185E-4    4.038987556964638E-4     4.6359992239312806E-4    5.313057963685449E-4     6.679410930556714E-4     9.93032380827238E-4      0.0013935308881103785    0.0011417549933049435    9.670465786548039E-4     8.419465548260018E-4     7.481747025593053E-4     6.757457882883164E-4     6.182418728841381E-4     5.71473763100614E-4      5.327983608647811E-4     5.003181794414911E-4     4.728367995227872E-4     4.48388705059518E-4      4.275971937942426E-4     4.0920672676342024E-4    3.928753473583515E-4     3.782880170928911E-4     3.651735146877997E-4     3.533238014794343E-4     3.4253920018918245E-4    3.327010890891331E-4     3.2366385842386457E-4    3.153132712036615E-4
0.002666666666666668      0.006766958967301942     4.7361829914282735E-4    4.302325436649165E-4     4.0330243772461146E-4    3.8040864420594656E-4    3.6045858873055316E-4    3.431418171676708E-4     3.287384207379382E-4     3.173574088413725E-4     3.08365506199115E-4      3.013075476527769E-4     2.962356476051818E-4     2.935381240139322E-4     2.933758054785154E-4     2.9546224221472557E-4    2.9890311351246765E-4    3.0490835324921065E-4    3.146502755313573E-4     3.2826104291485645E-4    3.452733174414973E-4     3.676837896137004E-4     4.020882955271745E-4     4.5520552381186625E-4    5.21678516463969E-4      5.969648239760452E-4     7.479921460143032E-4     0.0011018224602687224    0.0015154521303201165    0.0012503748787301514    0.001064104830617111     9.296453406041019E-4     8.283310900128611E-4     7.497482625100517E-4     6.871681672207698E-4     6.361400742132216E-4     5.93850439550558E-4      5.582534220231978E-4     5.281373196940584E-4     5.01253783384716E-4      4.7838392260492164E-4    4.581318956432061E-4     4.4012967791928894E-4    4.24035465920946E-4      4.0955416218953417E-4    3.9645917042088297E-4    3.84533002257247E-4      3.7364531289446536E-4    3.63637213778976E-4      3.543855926010434E-4
0.0030000000000000027     0.00733535347861819      5.295165942726457E-4     4.809907423107124E-4     4.508625845267545E-4     4.252475128901123E-4     4.0292337902210745E-4    3.835420586618988E-4     3.674164634763498E-4     3.5466803413002643E-4    3.445878781261813E-4     3.366662610349742E-4     3.3096031342996123E-4    3.279022071465862E-4     3.2766879150050124E-4    3.299389852560663E-4     3.3371677696130125E-4    3.403421791437706E-4     3.511144262872362E-4     3.6618023489261157E-4    3.850194376919253E-4     4.098298491910205E-4     4.4787387648957715E-4    5.065122919272687E-4     5.797571105348099E-4     6.626238515835456E-4     8.280431989729352E-4     0.0012106125397102067    0.0016373733725298545    0.0013589947641553593    0.0011611630825794183    0.0010173441263822021    9.084874774664168E-4     8.237507367317871E-4     7.560944615574017E-4     7.008063853258293E-4     6.549025182363349E-4     6.161886646049046E-4     5.834378398653296E-4     5.541188617099141E-4     5.291706514156007E-4     5.07057064522992E-4      4.873840084802264E-4     4.697829147490009E-4     4.539348096912687E-4     4.395945393623316E-4     4.265268043253116E-4     4.145895366997976E-4     4.036105691340875E-4     3.9345791399842534E-4
0.0033333333333333375     0.007698244540817597     5.828267134216003E-4     5.293836591710885E-4     4.96190280644146E-4      4.679650047207054E-4     4.4336164139175646E-4    4.219953449323562E-4     4.042101403178939E-4     3.90138994316676E-4      3.79000243326722E-4      3.7023147187340244E-4    3.638937335614996E-4     3.6045953191173665E-4    3.6011882236997137E-4    3.625169647428286E-4     3.665638875364027E-4     3.737141248471528E-4     3.85379672558748E-4      4.0172057088647654E-4    4.2216786477313953E-4    4.4908573048230534E-4    4.902928099549976E-4     5.536613259753013E-4     6.326183366608206E-4     7.218265867368094E-4     8.98730622931485E-4      0.0013014009743457602    0.0017324488587031099    0.0014468253367499579    0.0012415465992148594    0.0010912229344663908    9.768923722554015E-4     8.875500195290347E-4     8.16011611900297E-4      7.574078526369609E-4     7.086567191754073E-4     6.674480777413809E-4     6.325822434746322E-4     6.012829978439909E-4     5.746404231051836E-4     5.509968704780991E-4     5.299433176709065E-4     5.110912908564888E-4     4.941036582271401E-4     4.787210297804536E-4     4.6469444493009643E-4    4.5187234865856857E-4    4.400722368569851E-4     4.291557434089007E-4
0.0036666666666666688     0.008061135603017003     6.36136832570555E-4      5.777765760314645E-4     5.415179767615375E-4     5.106824965512985E-4     4.837999037614054E-4     4.604486312028136E-4     4.410038171594379E-4     4.256099545033255E-4     4.1341260852726264E-4    4.0379668271183064E-4    3.968271536930379E-4     3.9301685667688703E-4    3.9256885323944143E-4    3.9509494422959086E-4    3.9941099811150415E-4    4.070860705505349E-4     4.196449188302597E-4     4.3726090688034146E-4    4.593162918543537E-4     4.883416117735902E-4     5.327117434204181E-4     6.00810360023334E-4      6.854795627868313E-4     7.81029321890073E-4      9.694180468900346E-4     0.0013921894089813135    0.0018275243448763652    0.001534655909344556     0.0013219301158503005    0.0011651017425505796    0.0010452972670443863    9.513493023262822E-4     8.759287622431921E-4     8.140093199480924E-4     7.624109201144797E-4     7.187074908778572E-4     6.817266470839347E-4     6.484471339780676E-4     6.201101947947665E-4     5.949366764332062E-4     5.725026268615866E-4     5.523996669639766E-4     5.342725067630114E-4     5.178475201985755E-4     5.028620855348812E-4     4.891551606173394E-4     4.765339045798827E-4     4.64853572819376E-4
0.0040000000000000036     0.00842402666521641      6.894469517195095E-4     6.261694928918406E-4     5.868456728789289E-4     5.533999883818916E-4     5.242381661310543E-4     4.98901917473271E-4      4.7779749400098196E-4    4.6108091468997507E-4    4.478249737278033E-4     4.3736189355025884E-4    4.297605738245762E-4     4.2557418144203746E-4    4.2501888410891156E-4    4.276729237163531E-4     4.322581086866056E-4     4.40458016253917E-4      4.5391016510177147E-4    4.7280124287420644E-4    4.964647189355679E-4     5.27597493064875E-4      5.751306768858385E-4     6.479593940713666E-4     7.383407889128419E-4     8.402320570433367E-4     0.0010401054708485842    0.001482977843616867     0.0019225998310496205    0.0016224864819391544    0.0014023136324857416    0.0012389805506347682    0.001113702161833371     0.0010151485851235297    9.358459125860872E-4     8.70610787259224E-4      8.16165121053552E-4      7.699669040143335E-4     7.308710506932373E-4     6.956112701121443E-4     6.655799664843493E-4     6.388764823883133E-4     6.150619360522667E-4     5.937080430714644E-4     5.744413552988826E-4     5.569740106166975E-4     5.41029726139666E-4      5.264379725761104E-4     5.129955723027803E-4     5.005514022298513E-4
0.004333333333333338      0.008645347158495156     7.403891720915261E-4     6.723991501103174E-4     6.301323125604431E-4     5.941787156971145E-4     5.628251397090689E-4     5.355774787980508E-4     5.128715406512163E-4     4.948740615211691E-4     4.805877134105605E-4     4.692938064561613E-4     4.6106421336556915E-4    4.5648930270897526E-4    4.55795856488857E-4      4.5852962873660206E-4    4.633251691588308E-4     4.719669831601675E-4     4.8619312515973305E-4    5.062026499881904E-4     5.312837415264799E-4     5.642698516445872E-4     6.145554039528084E-4     6.914414846055024E-4     7.866502783391608E-4     8.938597408807563E-4     0.0011028901371167932    0.0015596028194741404    0.001999072919563282     0.0016953987325528262    0.0014704440412064423    0.0013025274243703255    0.001173199945993146     0.0010711273581097787    9.887912721366116E-4     9.209191901624735E-4     8.641816698635204E-4     8.159462101027527E-4     7.751129621916388E-4     7.38211411438536E-4      7.067720473383516E-4     6.787861953951553E-4     6.538088551785979E-4     6.313966736445992E-4     6.111621359432401E-4     5.928062448306927E-4     5.760420327416395E-4     5.60691157425048E-4      5.465422264284521E-4     5.334394138982706E-4
0.00466666666666667       0.0088666676517739       7.913313924635426E-4     7.18628807328794E-4      6.734189522419572E-4     6.349574430123374E-4     6.014121132870834E-4     5.722530401228304E-4     5.479455873014506E-4     5.286672083523631E-4     5.133504530933176E-4     5.012257193620638E-4     4.923678529065621E-4     4.87404423975913E-4      4.8657282886880237E-4    4.893863337568509E-4     4.94392229631056E-4      5.03475950066418E-4      5.184760852176946E-4     5.396040571021743E-4     5.661027641173917E-4     6.009422102242993E-4     6.539801310197782E-4     7.349235751396382E-4     8.349597677654795E-4     9.474874247181757E-4     0.001165674803385002     0.0016362277953314134    0.0020755460080769434    0.0017683109831664978    0.0015385744499271429    0.0013660742981058825    0.001232697730152921     0.0011271061310960276    0.0010417366316871357    9.71227593065723E-4      9.121982186734887E-4     8.619255161911719E-4     8.193548736900401E-4     7.808115527649277E-4     7.479641281923539E-4     7.186959084019972E-4     6.925557743049291E-4     6.690853042177338E-4     6.478829165875977E-4     6.28638479044688E-4      6.11054339343613E-4      5.949443422739855E-4     5.800888805541238E-4     5.663274255666899E-4
0.0050000000000000044     0.009087988145052645     8.422736128355591E-4     7.648584645472706E-4     7.167055919234714E-4     6.757361703275603E-4     6.399990868650979E-4     6.089286014476101E-4     5.830196339516849E-4     5.62460355183557E-4      5.461131927760747E-4     5.331576322679663E-4     5.23671492447555E-4      5.183195452428508E-4     5.173498012487478E-4     5.202430387770998E-4     5.254592901032813E-4     5.349849169726684E-4     5.507590452756562E-4     5.730054642161582E-4     6.009217867083037E-4     6.376145688040114E-4     6.934048580867481E-4     7.78405665673774E-4      8.832692571917981E-4     0.0010011151085555952    0.001228459469653211     0.0017128527711886866    0.0021520190965906047    0.0018412232337801694    0.0016067048586478434    0.0014296211718414396    0.001292195514312696     0.0011830849040822765    0.0010946819912376598    0.0010215359959689725    9.602147674834571E-4     9.079048222795911E-4     8.635967851884415E-4     8.234116940913194E-4     7.891562090463562E-4     7.586056214088391E-4     7.313026934312602E-4     7.067739347908686E-4     6.846036972319552E-4     6.644707132586831E-4     6.460666459455865E-4     6.291975271229231E-4     6.136355346797956E-4     5.992154372351092E-4
0.005333333333333339      0.009218904516483079     8.91041560037133E-4      8.091023888848758E-4     7.581193046464353E-4     7.147364877005603E-4     6.768885875554908E-4     6.439749088324201E-4     6.165185008329323E-4     5.947175256620622E-4     5.773667604613962E-4     5.63596438382944E-4      5.534865222745748E-4     5.477361915050094E-4     5.466019325672045E-4     5.495330938970216E-4     5.549085354664508E-4     5.648036208219222E-4     5.812473989891098E-4     6.044752787863112E-4     6.336426443310819E-4     6.719669556112047E-4     7.301539895623683E-4     8.186372912823898E-4     9.275856264470948E-4     0.0010498987245158573    0.0012845236795816966    0.0017781719813574847    0.0022148967865968606    0.0019028890641117915    0.0016654038534787956    0.0014850954954641138    0.0013446518460819325    0.001232822714944788     0.0011420192797415387    0.0010667479474462849    0.0010035562286522552    9.495616217020888E-4     9.038020488407186E-4     8.622409438953323E-4     8.267990122498005E-4     7.951591834817094E-4     7.668638649864546E-4     7.414280829831127E-4     7.184251933982581E-4     6.975251283835605E-4     6.784111059765138E-4     6.608826537166062E-4     6.447053410593589E-4     6.297104233255687E-4
0.0056666666666666705     0.009349820887913512     9.398095072387067E-4     8.533463132224808E-4     7.995330173693991E-4     7.537368050735601E-4     7.137780882458836E-4     6.7902121621723E-4       6.500173677141797E-4     6.269746961405675E-4     6.086203281467175E-4     5.940352444979215E-4     5.833015521015944E-4     5.77152837767168E-4      5.758540638856612E-4     5.788231490169433E-4     5.843577808296204E-4     5.946223246711761E-4     6.117357527025633E-4     6.359450933564644E-4     6.6636350195386E-4       7.06319342418398E-4      7.669031210379885E-4     8.588689168910053E-4     9.719019957023915E-4     0.0010986823404761192    0.001340587889510182     0.0018434911915262823    0.002277774476603116     0.0019645548944434133    0.0017241028483097475    0.0015405698190867879    0.0013971081778511687    0.0012825605258072993    0.0011893565682454177    0.0011119598989235975    0.001046897689821053     9.912184211245865E-4     9.440073124929956E-4     9.010701936993452E-4     8.644418154532445E-4     8.317127455545794E-4     8.024250365416491E-4     7.760822311753568E-4     7.522466895645609E-4     7.305795435084377E-4     7.10755566007441E-4      6.925677803102894E-4     6.757751474389221E-4     6.602054094160282E-4
0.006000000000000005      0.009480737259343945     9.885774544402804E-4     8.975902375600858E-4     8.409467300923628E-4     7.9273712244656E-4       7.506675889362764E-4     7.1406752360204E-4       6.835162345954271E-4     6.592318666190727E-4     6.398738958320389E-4     6.244740506128992E-4     6.13116581928614E-4      6.065694840293265E-4     6.05106195204118E-4      6.081132041368652E-4     6.1380702619279E-4       6.244410285204298E-4     6.422241064160169E-4     6.674149079266175E-4     6.990843595766382E-4     7.406717292255913E-4     8.036522525136087E-4     8.99100542499621E-4      0.0010162183649576881    0.0011474659564363813    0.0013966520994386675    0.0019088104016950801    0.0023406521666093716    0.002026220724775035     0.0017828018431406995    0.001596044142709462     0.0014495645096204049    0.0013322983366698105    0.0012366938567492966    0.0011571718504009099    0.0010902391509898508    0.0010328752205470842    9.842125761452727E-4     9.398994435033581E-4     9.020846186566886E-4     8.682663076274495E-4     8.379862080968436E-4     8.10736379367601E-4      7.860681857308637E-4     7.636339586333149E-4     7.431000260383683E-4     7.242529069039726E-4     7.068449538184852E-4     6.907003955064877E-4
0.00633333333333334       0.009556508150674612     0.001035342209262164     9.400052410542586E-4     8.80635977949613E-4      8.301005753256695E-4     7.859953361693319E-4     7.476155206341268E-4     7.155672539285867E-4     6.900780177382543E-4     6.697419495917769E-4     6.535430860683573E-4     6.415670961102263E-4     6.346138763543458E-4     6.329634998259727E-4     6.359720620837358E-4     6.417803730546846E-4     6.527202988840265E-4     6.710814001314494E-4     6.971333566805188E-4     7.299075523391353E-4     7.729320276643871E-4     8.38000047356105E-4      9.364374213807848E-4     0.0010570136634659158    0.0011920165535202931    0.0014469615100079416    0.001964989256519172     0.0023932303913356927    0.0020791241077428536    0.0018340137392379098    0.0016450236394012449    0.0014962963621568768    0.0013769202091376436    0.0012794020752903638    0.0011981524898378277    0.0011296787772272921    0.001070910128023519     0.0010210190732107718    9.755449381366867E-4     9.367197772450056E-4     9.019672534520771E-4     8.708319832867239E-4     8.427972853862484E-4     8.174059037883213E-4     7.943031818460774E-4     7.731487398183277E-4     7.537236438996967E-4     7.357748925158229E-4     7.191240756960346E-4
0.006666666666666671      0.009632279042005277     0.0010821069640840476    9.824202445484313E-4     9.203252258068628E-4     8.67464028204779E-4      8.213230834023873E-4     7.811635176662136E-4     7.47618273261746E-4      7.209241688574359E-4     6.99610003351515E-4      6.826121215238154E-4     6.700176102918386E-4     6.626582686793649E-4     6.608208044478274E-4     6.638309200306063E-4     6.697537199165791E-4     6.809995692476232E-4     6.999386938468817E-4     7.2685180543442E-4       7.607307451016322E-4     8.051923261031828E-4     8.723478421986011E-4     9.737743002619484E-4     0.0010978089619741432    0.001236567150604205     0.0014972709205772156    0.0020211681113432634    0.002445808616062014     0.0021320274907106725    0.0018852256353351197    0.0016940031360930272    0.0015430282146933485    0.0014215420816054765    0.0013221102938314308    0.0012391331292747453    0.0011691184034647332    0.0011089450354999537    0.001057825570276271     0.001011190432770015     9.713549358333224E-4     9.356681992767046E-4     9.036777584766042E-4     8.748581914048957E-4     8.487436218457788E-4     8.249724050588398E-4     8.031974535982869E-4     7.831943808954206E-4     7.647048312131604E-4     7.475477558855813E-4
0.007000000000000006      0.009708049933335943     0.0011288717189059314    0.001024835248042604     9.600144736641128E-4     9.048274810838884E-4     8.566508306354428E-4     8.147115146983004E-4     7.796692925949055E-4     7.517703199766176E-4     7.29478057111253E-4      7.116811569792735E-4     6.984681244734509E-4     6.90702661004384E-4      6.886781090696821E-4     6.916897779774769E-4     6.977270667784736E-4     7.092788396112199E-4     7.287959875623141E-4     7.565702541883212E-4     7.915539378641292E-4     8.374526245419785E-4     9.066956370410972E-4     0.001011111179143112     0.0011386042604823706    0.0012811177476881167    0.0015475803311464896    0.002077346966167355     0.0024983868407883352    0.002184930873678491     0.0019364375314323298    0.0017429826327848095    0.0015897600672298204    0.0014661639540733094    0.0013648185123724978    0.0012801137687116632    0.0012085580297021743    0.0011469799429763884    0.00109463206734177      0.0010468359274033437    0.0010059900944216394    9.693691451013322E-4     9.365235336664845E-4     9.06919097423543E-4      8.800813399032363E-4     8.556416282716021E-4     8.332461673782463E-4     8.126651178911447E-4     7.936347699104981E-4     7.759714360751281E-4