% Model:              Onedradial_solutes_diff.mph
% Version:            COMSOL 5.5.0.306
% Date:               Apr 11 2020, 07:45
% Dimension:          1
% Nodes:              1741
% Expressions:        49
% Description:        Liniengraph
% R                       Height                   Height                   Height                   Height                   Height                   Height                   Height                   Height                   Height                   Height                   Height                   Height                   Height                   Height                   Height                   Height                   Height                   Height                   Height                   Height                   Height                   Height                   Height                   Height                   Height                   Height                   Height                   Height                   Height                   Height                   Height                   Height                   Height                   Height                   Height                   Height                   Height                   Height                   Height                   Height                   Height                   Height                   Height                   Height                   Height                   Height                   Height                   Height                   Height
0                         0.009832286821079138     4.733114721790515E-4     3.601016744612028E-4     3.1050097994141215E-4    2.81022227018941E-4      2.6078162653028205E-4    2.4583829885866727E-4    2.341551591519991E-4     2.2465874388071926E-4    2.1675806508388343E-4    2.1006031520854034E-4    2.0427987194626506E-4    1.9921130456127648E-4    1.9471340111208504E-4    1.906861193031991E-4     1.8705525915978374E-4    1.8375882659000964E-4    1.8075029574671065E-4    1.7797823213231367E-4    1.7541851143120874E-4    1.730363655501112E-4     1.708135846882646E-4     1.6873380917615405E-4    1.66782411335544E-4      1.649520778675291E-4     1.632267620252131E-4     1.615999461799236E-4     1.600601759447189E-4     1.5859977886642547E-4    1.5721045684669342E-4    1.5588534872559322E-4    1.5462018652681248E-4    1.5341062634449982E-4    1.5225386571148368E-4    1.511466884189335E-4     1.5008098694667806E-4    1.490565898366555E-4     1.4807125845465313E-4    1.4712277778057946E-4    1.4620781818732985E-4    1.4532576721612269E-4    1.4447556328966865E-4    1.4365545963973984E-4    1.4286075139909263E-4    1.4209187908589447E-4    1.4134762057342815E-4    1.4062660556014427E-4    1.3992666684449175E-4    1.3924718632559317E-4
3.333333333333348E-4      0.009902042779294651     7.580921326598789E-4     5.810415537223476E-4     5.02638289534952E-4      4.5579642744230964E-4    4.235242050232879E-4     3.99643379663902E-4      3.809463364388648E-4     3.6571971238687315E-4    3.530429269195274E-4     3.422841388947208E-4     3.329909581354174E-4     3.248365181327837E-4     3.1759578118009424E-4    3.1110914151158447E-4    3.0525798273691254E-4    2.999431124781241E-4     2.9509034633075994E-4    2.9061784763045824E-4    2.8648625483081717E-4    2.8263982424064134E-4    2.790499620123495E-4     2.756903187256616E-4     2.725370731511973E-4     2.695784230582602E-4     2.667891214054814E-4     2.641586946462265E-4     2.6166814999997046E-4    2.593051234664759E-4     2.5705705953393674E-4    2.549130218835238E-4     2.5286557550531773E-4    2.5090768719959543E-4    2.490345277457994E-4     2.472408301482508E-4     2.4551461506153253E-4    2.4385516623645E-4       2.4225901263324562E-4    2.4072258783910033E-4    2.3924001830358385E-4    2.378105691544063E-4     2.3643249154328512E-4    2.3510297712476497E-4    2.338146093570536E-4     2.3256801550000593E-4    2.3136123721411103E-4    2.3019205719680252E-4    2.2905690943172965E-4    2.2795482008093515E-4
6.666666666666661E-4      0.009971798737510163     0.0010428727931407061    8.019814329834924E-4     6.947755991284918E-4     6.305706278656783E-4     5.862667835162937E-4     5.534484604691368E-4     5.277375137257304E-4     5.06780680893027E-4      4.893277887551713E-4     4.7450796258090126E-4    4.617020443245697E-4     4.504617317042909E-4     4.404781612481034E-4     4.315321637199698E-4     4.2346070631404134E-4    4.161273983662385E-4     4.094303969148092E-4     4.032574631286028E-4     3.975539982304256E-4     3.922432829311715E-4     3.8728633933643447E-4    3.826468282751692E-4     3.782917349668505E-4     3.742047682489913E-4     3.7035148078574964E-4    3.6671744311252944E-4    3.63276124055222E-4      3.600104680665263E-4     3.5690366222118E-4       3.5394069504145437E-4    3.511109644838229E-4     3.48404748054691E-4      3.4581518978011515E-4    3.4333497187756805E-4    3.40948243176387E-4      3.3865374263624445E-4    3.364467668118381E-4     3.3432239789762117E-4    3.322722184198378E-4     3.3029537109268987E-4    3.2838941979690156E-4    3.2655049460979013E-4    3.2476846731501456E-4    3.2304415191411733E-4    3.213748538547939E-4     3.197575088334607E-4     3.1818715201896756E-4    3.166624538362771E-4
0.0010000000000000009     0.010041554695725676     0.0013276534536215334    0.0010229213122446373    8.869129087220317E-4     8.053448282890469E-4     7.490093620092995E-4     7.072535412743716E-4     6.745286910125961E-4     6.478416493991809E-4     6.256126505908153E-4     6.067317862670817E-4     5.90413130513722E-4      5.760869452757981E-4     5.633605413161126E-4     5.519551859283552E-4     5.416634298911701E-4     5.32311684254353E-4      5.237704474988585E-4     5.158970786267474E-4     5.086217416300341E-4     5.018467416217017E-4     4.955227166605194E-4     4.896033378246768E-4     4.840463967825038E-4     4.788311134397224E-4     4.7391384016601793E-4    4.692761915788324E-4     4.648840981104735E-4     4.607158126665767E-4     4.5675026490842334E-4    4.52968368199385E-4      4.4935635346232813E-4    4.459018089097866E-4     4.425958518144309E-4     4.3942911360688537E-4    4.3638187129124153E-4    4.33452319036039E-4      4.306345209904306E-4     4.27922207956142E-4      4.2530441853609184E-4    4.227801730309735E-4     4.2034634805051803E-4    4.1799801209481527E-4    4.1572232527297553E-4    4.135202883282288E-4     4.1138847049547683E-4    4.0932296047011896E-4    4.0731739460620544E-4    4.053700875916191E-4
0.0013333333333333357     0.010024268477243572     0.0015968512220562144    0.0012327541323470601    0.0010696578224085585    9.716902203778127E-4     9.0396745183673E-4       8.537399450838814E-4     8.143593796794181E-4     7.822333633097557E-4     7.554669824976291E-4     7.327268299596569E-4     7.130687565963379E-4     6.958082147220826E-4     6.804731069821976E-4     6.66728213748887E-4      6.54323944306023E-4      6.430514455341657E-4     6.327549835282116E-4     6.232631551054338E-4     6.144915860602862E-4     6.063226665182228E-4     5.986971678308447E-4     5.915592332271853E-4     5.848579574508133E-4     5.785682765022728E-4     5.726377892159477E-4     5.670443486975481E-4     5.617467501115394E-4     5.567187925578285E-4     5.519353197230292E-4     5.473733680732275E-4     5.430161841368433E-4     5.388488001954424E-4     5.348604192812025E-4     5.310397253319953E-4     5.273632665499133E-4     5.238287348383327E-4     5.204290133230677E-4     5.171565459302685E-4     5.139979793060279E-4     5.109522005769546E-4     5.080154323208466E-4     5.051817328045379E-4     5.024356815406865E-4     4.997784571029125E-4     4.972059282103055E-4     4.947133776342405E-4     4.922931106851305E-4     4.899431037001986E-4
0.001666666666666667      0.010006982258761466     0.0018660489904908954    0.0014425869524494828    0.0012524027360950854    0.0011380356124665785    0.0010589255416641604    0.0010002263488933913    9.541900683462401E-4     9.166250772203304E-4     8.853213144044429E-4     8.587218736522322E-4     8.357243826789537E-4     8.155294841683669E-4     7.975856726482826E-4     7.815012415694186E-4     7.669844587208757E-4     7.537912068139785E-4     7.417395195575647E-4     7.3062923158412E-4       7.203614304905384E-4     7.107985914147439E-4     7.018716190011699E-4     6.935151286296937E-4     6.856695181191228E-4     6.783054395648233E-4     6.713617382658775E-4     6.648125058162637E-4     6.586094021126051E-4     6.527217724490803E-4     6.47120374537635E-4      6.417783679470699E-4     6.366760148113583E-4     6.317957914810983E-4     6.271249867479741E-4     6.226503370571052E-4     6.18344661808585E-4      6.142051506406263E-4     6.102235056557048E-4     6.063908839043949E-4     6.026915400759638E-4     5.991242281229357E-4     5.95684516591175E-4      5.923654535142605E-4     5.891490378083973E-4     5.860366258775961E-4     5.830233859251341E-4     5.80103794798362E-4      5.772688267640556E-4     5.745161198087781E-4
0.0020000000000000018     0.009989696040279362     0.0021352467589255764    0.0016524197725519057    0.0014351476497816123    0.0013043810045553442    0.001213883631491591     0.0011467127527029011    0.001094020757013062     0.0010510167911309052    0.0010151756463112568    9.847169173448074E-4     9.583800087615695E-4     9.352507536146514E-4     9.146982383143676E-4     8.962742693899504E-4     8.796449731357285E-4     8.645309680937913E-4     8.507240555869177E-4     8.379953080628064E-4     8.262312749207905E-4     8.15274516311265E-4      8.050460701714952E-4     7.954710240322022E-4     7.864810787874323E-4     7.780426026273737E-4     7.700856873158072E-4     7.625806629349794E-4     7.55472054113671E-4      7.48724752340332E-4      7.423054293522409E-4     7.361833678209124E-4     7.303358454858733E-4     7.247427827667541E-4     7.193895542147457E-4     7.142609487822151E-4     7.093260570672568E-4     7.045815664429199E-4     7.000179979883419E-4     6.956252218785214E-4     6.913851008458999E-4     6.872962556689168E-4     6.833536008615035E-4     6.795491742239831E-4     6.758623940761083E-4     6.722947946522798E-4     6.688408436399628E-4     6.654942119624835E-4     6.622445428429807E-4     6.590891359173576E-4
0.0023333333333333366     0.009993982910691052     0.0023887962889381116    0.001851601202480432     0.0016090404130058294    0.001462852396639832     0.0013616088013366798    0.0012864223877537175    0.001227423039988117     0.001179260354690305     0.0011391107135211207    0.0011049848256405941    0.0010754729362275612    0.001049552619924789     0.0010265179141249819    0.0010058671500396063    9.87226520956539E-4      9.702832653573504E-4     9.548043565935194E-4     9.405337472221549E-4     9.27344067959161E-4      9.150589831897674E-4     9.03590173062792E-4      8.928536160916955E-4     8.827728020423177E-4     8.733099997593513E-4     8.643869808482107E-4     8.55970498034246E-4      8.479983208094908E-4     8.404311147487772E-4     8.332316374011184E-4     8.263654855496803E-4     8.198071145873649E-4     8.135340125124655E-4     8.075297377829603E-4     8.017772267429862E-4     7.962420018672406E-4     7.909202769017709E-4     7.858014427784353E-4     7.808741431842576E-4     7.761179808562077E-4     7.715314380038284E-4     7.67108805001886E-4      7.628411573996684E-4     7.587054597603718E-4     7.547034131924735E-4     7.50828818133867E-4      7.470745780951842E-4     7.434290694258686E-4     7.398892694177995E-4
0.002666666666666668      0.00999826978110274      0.0026423458189506464    0.0020507826324089582    0.0017829331762300462    0.0016213237887243194    0.0015093339711817685    0.0014261320228045337    0.001360825322963172     0.0013075039182497046    0.0012630457807309844    0.0012252527339363809    0.001192565863693553     0.0011638544862349264    0.001138337589935596     0.0011154600306892623    0.0010948080687773498    0.0010760355626209094    0.001058884657600121     0.0010430721863815035    0.0010284568609975314    0.0010148434500682698    0.0010021342759540888    9.902362081511888E-4     9.79064525297203E-4      9.685773968913288E-4     9.586882743806139E-4     9.493603331335125E-4     9.405245875053106E-4     9.321374771572222E-4     9.241578454499957E-4     9.165476032784482E-4     9.092783836888564E-4     9.023252422581769E-4     8.95669921351175E-4      8.892935047037573E-4     8.831579466672242E-4     8.772589873606218E-4     8.715848875685286E-4     8.661230644899939E-4     8.608508608665154E-4     8.557666203387399E-4     8.508640091422684E-4     8.461331405753534E-4     8.415485254446354E-4     8.371120317326672E-4     8.32816792627771E-4      8.286549442278847E-4     8.246135960087563E-4     8.206894029182413E-4
0.0030000000000000027     0.01000255665151443      0.002895895348963181     0.0022499640623374847    0.0019568259394542632    0.001779795180808807     0.0016570591410268575    0.0015658416578553502    0.001494227605938227     0.0014357474818091044    0.0013869808479408483    0.0013455206422321676    0.0013096587911595448    0.001278156352545064     0.0012501572657462102    0.001225052911338918     0.0012023896165981604    0.0011817878598844684    0.0011629649586067225    0.001145610625540852     0.0011295696540359018    0.0011146279169467722    0.0011006783788453855    0.0010876188002106823    0.0010753562485520884    0.0010638447940233063    0.0010529895679130172    0.0010427501682327791    0.0010330508542011304    0.0010238438395656674    0.0010150840534988732    0.0010067297210072162    9.98749652790348E-4      9.911164720038882E-4     9.838101049193897E-4     9.768097826645284E-4     9.700738914672079E-4     9.635976978194727E-4     9.57368332358622E-4      9.513719857957301E-4     9.455837408768231E-4     9.400018026736514E-4     9.346192132826509E-4     9.294251237510386E-4     9.24391591128899E-4      9.195206502728609E-4     9.148047671216752E-4     9.102353103605853E-4     9.057981225916441E-4     9.014895364186831E-4
0.0033333333333333375     0.010001492862340587     0.003133754613750847     0.002438883261193103     0.002122331033004682     0.0019308711809192989    0.001798028223997055     0.0016992439339536987    0.0016216626558641291    0.0015582951456893283    0.001505440537163823     0.001460497208436034     0.001421617265175845     0.0013874600626747678    0.0013570987976121375    0.001329874336821165     0.0013052952295924442    0.0012829504210448218    0.0012625337857708903    0.0012437095628573564    0.0012263091800445488    0.0012101005986758704    0.001194967928890672     0.0011808002045019313    0.0011674967579344215    0.0011550077268946593    0.0011432303445918358    0.0011321208067745973    0.0011215969794329242    0.0011116070700846192    0.0011021022642319813    0.0010930372857418011    0.0010843782687913854    0.0010760955194398006    0.001068167234559824     0.0010605708805771197    0.0010532614486277922    0.0010462337493375928    0.0010394738331558474    0.0010329667210989897    0.0010266853523849023    0.0010206277917741487    0.0010147864842615403    0.0010091496637525807    0.0010036870567247409    9.98400852242209E-4      9.932828802033822E-4     9.883237781878077E-4     9.835081828939477E-4     9.788321194602525E-4
0.0036666666666666688     0.010000429073166743     0.003371613878538512     0.002627802460048721     0.0022878361265551007    0.0020819471810297903    0.0019389973069672522    0.001832646210052047     0.001749097705790031     0.0016808428095695521    0.0016239002263867975    0.0015754737746399       0.001533575739192145     0.0014967637728044714    0.0014640403294780646    0.0014346957623034115    0.0014082008425867277    0.0013841129822051749    0.001362102612935058     0.0013418085001738606    0.0013230487060531958    0.0013055732804049683    0.0012892574789359582    0.0012739816087931801    0.0012596372673167543    0.0012461706597660124    0.0012334711212706542    0.0012214914453164154    0.001210143104664718     0.001199370300603571     0.0011891204749650893    0.0011793448504763859    0.0011700068847924226    0.0011610745668757133    0.0011525243642002583    0.0011443319784897109    0.0011364490057883766    0.0011288698008557125    0.0011215793339530726    0.0011145614564022494    0.0011077869638929816    0.0011012537808746461    0.0010949537552404295    0.0010888742037541226    0.0010829825223205825    0.001077281054211557     0.001071760993285089     0.0010664122460150303    0.0010612182431962514    0.001056174702501822
0.0040000000000000036     0.0099993652839929       0.003609473143326178     0.0028167216589043394    0.0024533412201055193    0.0022330231811402822    0.0020799663899374495    0.0019660484861503953    0.001876532755715933     0.0018033904734497761    0.001742359915609772     0.0016904503408437662    0.001645534213208445     0.0016060674829341752    0.001570981861343992     0.0015395171877856581    0.0015111064555810112    0.0014852755433655282    0.0014616714400992256    0.0014399074374903647    0.0014197882320618428    0.0014010459621340663    0.0013835470289812444    0.0013671630130844292    0.0013517777766990874    0.0013373335926373654    0.0013237118979494726    0.0013108620838582336    0.0012986892298965118    0.001287133531122523     0.0012761386856981975    0.0012656524152109706    0.0012556355007934598    0.0012460536143116257    0.0012368814938406925    0.001228093076402302     0.001219636562948961     0.0012115058523738324    0.001203684834750298     0.001196156191705509     0.001188888575401061     0.0011818797699751436    0.0011751210262193187    0.0011685987437556648    0.0011622779879164244    0.001156161256180905     0.001150239106366796     0.0011445007138422526    0.001138928303498555     0.0011335172855433911
0.004333333333333338      0.009999629405417222     0.0038316508887248006    0.002995718673500199     0.0026108621414790687    0.0023771198467565655    0.002214594522898442     0.0020935526809230196    0.001998402809364985     0.0019206371540817185    0.0018557319855778663    0.0018005164463701846    0.0017527326584632409    0.0017107414597168952    0.00167340808515935      0.00163992478119437      0.00160968887500735      0.0015821965320861697    0.0015570726641749015    0.0015339067391047863    0.0015124905873149805    0.0014925393909541952    0.0014739111952514386    0.0014564692062281595    0.0014400900177488228    0.0014247121217363047    0.001410209469640446     0.0013965282173126843    0.0013835673987142932    0.0013712634154762853    0.0013595563900877909    0.0013483907223407114    0.0013377246498843906    0.0013275216359695209    0.001317754766812872     0.0013083962968167566    0.0012993912131967406    0.0012907329682240796    0.001282404420551859     0.0012743871357619814    0.0012666477269716923    0.0012591838386283403    0.0012519861490092596    0.0012450401832324982    0.001238308796060091     0.001231794625075249     0.0012254876215098463    0.0012193762640293271    0.001213441629752493     0.0012076788353674727
0.00466666666666667       0.009999893526841544     0.004053828634123423     0.003174715688096058     0.0027683830628526173    0.0025212165123728483    0.0023492226558594342    0.002221056875695644     0.002120272863014037     0.002037883834713661     0.001969104055545961     0.0019105825518966027    0.0018599311037180368    0.0018154154364996148    0.0017758343089747078    0.0017403323746030817    0.0017082712944336885    0.001679117520806811     0.0016524738882505773    0.0016279060407192077    0.001605192942568118     0.001584032819774324     0.0015642753615216325    0.0015457753993718898    0.001528402258798558     0.0015120906508352438    0.0014967070413314193    0.0014821943507671348    0.0014684455675320746    0.0014553932998300474    0.0014429740944773841    0.0014311290294704523    0.0014198137989753213    0.0014089896576274159    0.0013986280397850514    0.0013886995172312112    0.0013791458634445203    0.0013699600840743269    0.00136112400635342      0.0013526180798184536    0.0013444068785423238    0.001336487907281537     0.0013288512717992004    0.0013214816227093316    0.0013143396042037572    0.001307427993969593     0.001300736136652897     0.0012942518142164017    0.0012879549560064307    0.0012818403851915542
0.0050000000000000044     0.010000157648265865     0.0042760063795220455    0.0033537127026919173    0.0029259039842261664    0.0026653131779891316    0.0024838507888204266    0.0023485610704682683    0.002242142916663089     0.0021551305153456033    0.002082476125514055     0.002020648657423021     0.0019671295489728327    0.0019200894132823346    0.0018782605327900656    0.0018407399680117934    0.0018068537138600273    0.0017760385095274525    0.001747875112326253     0.001721905342333629     0.0016978952978212556    0.0016755262485944528    0.0016546395277918264    0.0016350815925156202    0.0016167144998482932    0.0015994691799341829    0.0015832046130223928    0.0015678604842215853    0.001553323736349856     0.0015395231841838096    0.0015263917988669775    0.0015138673366001932    0.0015019029480662519    0.001490457679285311     0.001479501312757231     0.0014690027376456658    0.0014589005136923       0.001449187199924574     0.001439843592154981     0.0014308490238749258    0.0014221660301129552    0.0014137919759347336    0.0014057163945891413    0.001397923062186165     0.0013903704123474235    0.001383061362863937     0.0013759846517959473    0.0013691273644034763    0.0013624682822603684    0.0013560019350156358
0.005333333333333339      0.010000092041819926     0.004482582525040663     0.0035230923722402536    0.003075795310809445     0.0028027952398724312    0.0026125019008091765    0.002470526247346303     0.0023588009944018485    0.00226742302451068      0.002191101250078741     0.002126139067918776     0.002069897165480922     0.002020457671012931     0.0019764906277935316    0.0019370483904610225    0.0019014233644822334    0.0018690243766422878    0.001839411452095346     0.0018121042382853532    0.0017868564258572532    0.0017633332607748374    0.0017413682123204922    0.0017207996913707428    0.001701482943709128     0.0016833452567301488    0.001666238529474378     0.0016500993709625221    0.001634809015052443     0.001620292690084425     0.0016064799561537736    0.0015933054223557562    0.001580719818774795     0.0015686800855338108    0.0015571544234394196    0.001546110116220141     0.001535482696639988     0.001525264279635416     0.0015154346770194684    0.0015059721571251878    0.0014968373110998748    0.0014880273663718583    0.0014795313061448576    0.0014713320725227143    0.0014633860057843115    0.0014556961484987582    0.0014482506600874878    0.0014410359618576328    0.0014340297432217889    0.00142722625347632
0.0056666666666666705     0.010000026435373986     0.004689158670559279     0.003692472041788589     0.0032256866373927234    0.0029402773017557305    0.0027411530127979256    0.0025924914242243377    0.0024754590721406075    0.0023797155336757565    0.0022997263746434267    0.0022316294784145317    0.0021726647819890112    0.002120825928743527     0.002074720722796997     0.0020333568129102513    0.0019959930151044396    0.001962010243757123     0.001930947791864439     0.0019023031342370771    0.0018758175538932504    0.0018511402729552218    0.0018280968968491578    0.0018065177902258655    0.0017862513875699627    0.0017672213335261145    0.0017492724459263627    0.001732338257703459     0.0017162942937550298    0.0017010621959850404    0.0016865681134405695    0.001672743508111319     0.001659536689483338     0.0016469024917823102    0.0016348075341216081    0.001623217494794616     0.0016120648795876758    0.001601341359346258     0.0015910257618839557    0.0015810952903754496    0.0015715085920867944    0.0015622627568089827    0.0015533462177005737    0.0015447410828592636    0.001536401599221199     0.0015283309341335794    0.0015205166683790283    0.0015129445593117892    0.0015055912041832093    0.001498450571937004
0.006000000000000005      0.009999960828928046     0.004895734816077895     0.0038618517113369246    0.003375577963976002     0.00307775936363903      0.002869804124786675     0.0027144566011023724    0.002592117149879367     0.0024920080428408333    0.0024083514992081128    0.002337119888910287     0.0022754323984971003    0.002221194186474123     0.0021729508178004626    0.0021296652353594804    0.0020905626657266455    0.0020549961108719582    0.002022484131633532     0.0019925020301888013    0.001964778681929248     0.0019389472851356062    0.0019148255813778237    0.0018922358890809882    0.0018710198314307973    0.0018510974103220805    0.0018323063623783475    0.0018145771444443958    0.0017977795724576165    0.001781831701885656     0.0017666562707273656    0.001752181593866882     0.001738353560191881     0.0017251248980308098    0.0017124606448037968    0.0017003248733690913    0.0016886470625353638    0.0016774184390571       0.0016666168467484432    0.0016562184236257114    0.001646179873073714     0.0016364981472461074    0.0016271611292562897    0.0016181500931958129    0.0016094171926580869    0.0016009657197684007    0.0015927826766705688    0.0015848531567659455    0.0015771526651446298    0.001569674890397688
0.00633333333333334       0.009999977131248979     0.005086874401162644     0.004021894793733896     0.003518155077164904     0.003208949284545889     0.002992799428460095     0.00283119968428221      0.00270387490094369      0.002599652601358351     0.0025125305952595294    0.002438330390727452     0.002374060133923269     0.0023175431572042774    0.002267267001233602     0.0022221527618321558    0.0021813941238257237    0.0021443179630239316    0.0021104234309715186    0.0020791653061202147    0.0020502604858725873    0.0020233270597583308    0.001998175388760904     0.001974620055396727     0.0019524963182082557    0.0019317206626550086    0.0019121241418947573    0.00189363428874777      0.001876115538259069     0.0018594825614959235    0.0018436548461934071    0.0018285577308292556    0.001814134798374005     0.0018003367690856207    0.0017871271628303537    0.0017744685200533376    0.0017622874827593158    0.001750574830767253     0.0017393074699105367    0.0017284605214963882    0.0017179888328325633    0.0017078892212901528    0.0016981490405583739    0.0016887487693570432    0.0016796385827514907    0.0016708218812607719    0.0016622851150333777    0.0016540127448248171    0.00164597923693363      0.0016381780121098228
0.006666666666666671      0.00999999343356991      0.005278013986247392     0.004181937876130867     0.0036607321903538055    0.0033401392054527475    0.0031157947321335143    0.002947942767462047     0.002815632652008013     0.002707297159875869     0.0026167096913109456    0.0025395408925446166    0.002472687869349438     0.0024138921279344312    0.002361583184666742     0.0023146402883048307    0.002272225581924802     0.002233639815175905     0.002198362730309505     0.0021658285820516277    0.0021357422898159264    0.0021077068343810556    0.0020815251961439846    0.0020570042217124655    0.002033972804985714     0.0020123439149879363    0.001991941921411167     0.001972691433051144     0.0019544515040605215    0.0019371334211061909    0.0019206534216594485    0.001904933867791629     0.0018899160365561287    0.0018755486401404317    0.0018617936808569104    0.0018486121667375835    0.0018359279029832674    0.0018237312224774055    0.0018119980930726303    0.0018007026193670647    0.0017897977925914123    0.001779280295334198     0.0017691369518604578    0.0017593474455182734    0.0017498599728448941    0.0017406780427531427    0.0017317875533961861    0.0017231723328836885    0.00171480580872263      0.0017066811338219575
0.007000000000000006      0.010000009735890842     0.00546915357133214      0.004341980958527838     0.0038033093035427074    0.0034713291263596064    0.003238790035806934     0.003064685850641884     0.0029273904030723357    0.002814941718393387     0.0027208887873623622    0.0026407513943617813    0.0025713156047756066    0.002510241098664585     0.0024558993680998814    0.002407127814777506     0.00236305704002388      0.0023229616673278784    0.002286302029647491     0.002252491857983041     0.0022212240937592655    0.0021920866090037803    0.002164875003527065     0.002139388388028204     0.0021154492917631724    0.0020929671673208645    0.0020717597009275767    0.0020517485773545183    0.002032787469861974     0.0020147842807164583    0.00199765199712549      0.0019813100047540028    0.0019656972747382527    0.0019507605111952426    0.001936460198883467     0.0019227558134218296    0.001909568323207219     0.0018968876141875583    0.001884688716234724     0.0018729447172377415    0.0018616067523502613    0.0018506713693782432    0.001840124863162542     0.0018299461216795035    0.0018200813629382978    0.0018105342042455134    0.0018012899917589946    0.0017923319209425601    0.00178363238051163      0.0017751842555340921