% Model:              Onedradial_solutes.mph
% Version:            COMSOL 5.5.0.306
% Date:               Apr 8 2020, 14:59
% Dimension:          1
% Nodes:              1741
% Expressions:        49
% Description:        Liniengraph
% R                       Height                   Height                   Height                   Height                   Height                   Height                   Height                   Height                   Height                   Height                   Height                   Height                   Height                   Height                   Height                   Height                   Height                   Height                   Height                   Height                   Height                   Height                   Height                   Height                   Height                   Height                   Height                   Height                   Height                   Height                   Height                   Height                   Height                   Height                   Height                   Height                   Height                   Height                   Height                   Height                   Height                   Height                   Height                   Height                   Height                   Height                   Height                   Height                   Height
0                         -100.05581494062575      -105.66630136422313      -111.64728910194565      -118.12321692272971      -125.15146815470558      -132.8023040253372       -141.15345343026448      -150.30180095752092      -160.37096921037758      -171.4945869330847       -183.83415072761835      -197.58839946213334      -212.99599760885877      -230.37057077109912      -250.09398799026675      -272.65433424099393      -298.7040577064689       -329.04537766128345      -364.753852342416        -407.4116659497657       -459.46093292405516      -524.6536947238721       -608.635863681247        -719.8367499503813       -896.1896378640616       -1207.8019266363394      -2231.6307955106854      -14367.506492806531      -14625.701241631583      -14757.63965618551       -14833.658789100678      -14880.192641180718      -14914.553599537585      -14935.506767468416      -14950.205479193588      -14961.079958873475      -14969.068426781861      -14975.663861948033      -14979.489476066514      -14983.568896642972      -14986.334343207178      -14988.585941551055      -14990.2865726644        -14991.695737759386      -14992.919803551427      -14993.919168843433      -14994.769725992854      -14995.465895585769      -14996.041993200375
3.333333333333348E-4      -100.05510667310772      -105.66545430086751      -111.64627431233701      -118.12199506529456      -125.14998842121398      -132.80050027335417      -141.15124294239865      -150.2990747572833       -160.36757607770807      -171.4903293206691       -183.8287673922939       -197.58153389074658      -212.98715377463125      -230.3590075038832       -250.07862619679258      -272.633591946739        -298.6754788457291       -329.0055208845465       -364.6976292357795       -407.33038518609794      -459.3381769609522       -524.4583290002207       -608.3112589080633       -719.2841268817016       -894.8897820174508       -1204.1287233614241      -2201.2613704840383      -9446.475540769157       -10121.95785913887       -10657.198517504989      -11098.95331893008       -11470.4984194547        -11787.979849251831      -12060.288327619875      -12296.82183926933       -12503.941587518568      -12686.401978377338      -12848.24839164553       -12991.693706409425      -13120.048553829984      -13235.199462064227      -13339.027267323425      -13433.020370533559      -13518.388420073883      -13596.365332650957      -13667.650560071856      -13733.19989223256       -13793.51939797855       -13849.283658534347
6.666666666666661E-4      -100.05441115351208      -105.66462084292         -111.64527582569308      -118.12079284243141      -125.14853247338822      -132.79872552588932      -141.1490680142285       -150.29639243444515      -160.36423758979458      -171.48614032570808      -183.8234708942081       -197.57477918483366      -212.97845293367516      -230.34763149795168      -250.06351366914203      -272.61318718520755      -298.64736748864533      -328.9663193355388       -364.6423337718677       -407.25045221855135      -459.21747937787313      -524.2663039864607       -607.9923488738671       -718.7414688619177       -893.6170190916831       -1200.550972146663       -2172.63200815549        -6628.772864098374       -7478.965229869074       -8189.561900037467       -8794.861547056105       -9315.874540742174       -9767.218908123852       -10161.862649321678      -10509.394500208062      -10817.454340922557      -11092.075507050246      -11338.00884969055       -11558.841567855186      -11757.795594403922      -11938.141719153347      -12102.135546839907      -12251.838711146711      -12388.854595740795      -12514.8607521976        -12630.867561869514      -12738.189783434002      -12837.562237004599      -12929.94134343509
0.0010000000000000009     -100.05372838183891      -105.6638009903806       -111.64429364201385      -118.11961025414033      -125.1471003112283       -132.79697978294263      -141.14692864575417      -150.2937539890065       -160.36095374663714      -171.4820199482016       -183.81826123336091      -197.56813534439473      -212.96989508599054      -230.3364427533047       -250.04865040731514      -272.5931199563996       -298.61972363521767      -328.9277730142603       -364.5879659506808       -407.1718670471259       -459.09884017481795      -524.0776196825921       -607.6791335786585       -718.2087758910297       -892.3713490867583       -1197.0686729920565      -2145.7427085250415      -5914.398462794184       -6696.723353822197       -7354.7298037829505      -7921.3834734787615      -8416.321005043146       -8852.270776153655       -9240.229732573833       -9587.923462009789       -9901.61821908545        -10186.08901280059       -10444.945236083106      -10680.933060403799      -10896.810018364795      -11095.161114474544      -11277.910780100508      -11446.74159450386       -11603.094264760122      -11748.406062191361      -11883.570174236409      -12009.73939959718       -12127.594412663917      -12238.015047902609
0.0013333333333333357     -100.05305778380205      -105.66299409585456      -111.64332698545978      -118.11844636591492      -125.14569080248528      -132.79526166358548      -141.14482314359427      -150.29115733097308      -160.3577219445643       -171.47796491749767      -183.8131342687923       -197.56159707977883      -212.9614734046069       -230.32543232223523      -250.0340244890308       -272.57337409268433      -298.59252483069434      -328.88985036739484      -364.53448101653714      -407.0945644826897       -458.98215923394605      -523.8921119745675       -607.3713295745199       -717.6855448952576       -891.1512580499884       -1193.6754902715777      -2120.352654629411       -5365.5029648040545      -6090.086249367248       -6707.806926897548       -7246.762855269479       -7723.26080409656        -8147.984183228464       -8530.204097267868       -8876.472519940937       -9192.112320246644       -9481.203083613786       -9746.7957506629         -9991.101983270042       -10216.526857757777      -10425.351362604095      -10619.266666925905      -10799.735152102448      -10968.07333411817       -11125.562238429542      -11273.011133873699      -11411.458021591254      -11541.526988226136      -11664.033073139773
0.001666666666666667      -100.05239883632099      -105.6621995708279       -111.64237515075877      -118.1173003282545       -125.14430291791203      -132.7935699125267       -141.1427499684504       -150.28860056054938      -160.35453981689437      -171.47397226070936      -183.808086236638        -197.55515958318261      -212.95318168466954      -230.31459207280324      -250.01962507964336      -272.5539349026664       -298.56575067385666      -328.85252273179833      -364.48183831848667      -407.0184853245358       -458.86734566364896      -523.7096319542644       -607.068679866859        -717.1713201316343       -889.9553861304661       -1190.365834362303       -2096.277085433559       -4939.957809675644       -5617.686189685289       -6201.354259574555       -6715.594148897885       -7174.373982299956       -7586.923664060564       -7961.280318601836       -8303.145250450656       -8617.153921912513       -8906.86938174323        -9174.926724389396       -9423.142496021279       -9653.645056218396       -9868.474745752546       -10069.134274949043      -10256.908525906143      -10433.004759982574      -10598.572969907109      -10754.346749441644      -10901.264214630572      -11039.893906434296      -11170.989312018228
0.0020000000000000018     -100.05175153939577      -105.66141741530063      -111.6414381379109       -118.11617214115905      -125.14293665750861      -132.79190452976636      -141.14070912032267      -150.28608367773552      -160.35140736362754      -171.4700419778367       -183.803117136898        -197.5488228546061       -212.94501992617865      -230.30392200500884      -250.00545217915294      -272.5348023863461       -298.53940116470454      -328.8157901074711       -364.43003785652934      -406.94362957266446      -458.7543994639268       -523.5301796216827       -606.7711844556757       -716.66610160016         -888.7837333281915       -1187.1397052642324      -2073.516000937487       -4637.762997408956       -5279.523174776326       -5835.371801813978       -6327.877354363983       -6769.660539653337       -7169.089218649954       -7533.458396575739       -7867.941653538947       -8176.743024083067       -8463.087907188927       -8729.33815726259        -8977.054598657507       -9208.164613746654       -9424.531263919902       -9627.513604169922       -9818.261715914945       -9997.888542353345       -10167.438256624067      -10327.577020940247      -10479.15797871513       -10622.695167288399      -10758.883764537972
0.0023333333333333366     -100.05111539344433      -105.66064706748817      -111.64051527367906      -118.11506099371798      -125.14159103878893      -132.79026431705245      -141.13869912986885      -150.2836048690927       -160.34832232568584      -171.46617123119697      -183.79822337694853      -197.54258230508293      -212.9369822068596       -230.29341435748208      -249.991495446988        -272.5159625229989       -298.5134568355329       -328.7796251454845       -364.3790408455467       -406.86994074776163      -458.64323394065696      -523.3536130061232       -606.4785984564219       -716.1694552846667       -887.6350098201342       -1183.9918432043007      -2051.9044045812097      -4392.004226076846       -5003.819286380522       -5536.065783665008       -6009.7171385212005      -6436.371860926827       -6823.740264776741       -7178.552343300187       -7505.578451114297       -7808.693859080172       -8090.865687417752       -8354.246786553611       -8600.204254645269       -8830.514198161609       -9046.895410504749       -9250.595280221143       -9442.658369269426       -9624.119359949656       -9795.93741378442        -9958.723234130324       -10113.260546677699      -10260.017206445053      -10399.63906943806
0.002666666666666668      -100.05048994135196      -105.65988801447894      -111.639605943399        -118.11396614557646      -125.14026516475884      -132.7886481804109       -141.13671865563143      -150.2811624790379       -160.34528264067603      -171.4623574302232       -183.79340167710447      -197.53643374549085      -212.92906312064065      -230.28306204568747      -249.97774544491332      -272.4974025164881       -298.4878999215833       -328.74400289305777      -364.32881190324406      -406.7973673343143       -458.5337700429466       -523.1798027185865       -606.1906988374394       -715.6809862051844       -886.5080512296317       -1180.9175778896426      -2031.3125138053756      -4183.951345616399       -4769.977968673453       -5281.627579607836       -5738.575615803384       -6151.60063762618        -6527.883010858378       -6873.697474337896       -7193.488604869809       -7490.866309369348       -7768.588741843339       -8028.64013684232        -8272.232544457313       -8501.020561593907       -8716.60185417788        -8920.132404688511       -9112.570301849548       -9294.88347283636        -9467.960126776721       -9632.364045153796       -9788.820419316444       -9937.757367593937       -10079.778231537333
0.0030000000000000027     -100.04987518311869      -105.65914025627298      -111.63871014707077      -118.11288759673455      -125.13895903541842      -132.78705611984168      -141.1347676976105       -150.2787565075711       -160.34228830859823      -171.45860057491544      -183.78865203736584      -197.53037717582998      -212.92126266752177      -230.27286506962514      -249.9642021729289       -272.47912236681356      -298.46273042285554      -328.708923350191        -364.2793510296217       -406.7259093323227       -458.426007770796        -523.008748759073        -605.9074855987286       -715.2006943617131       -885.4028575566841       -1177.916909320259       -2011.740328609986       -4013.604356027616       -4577.99922165512        -5072.0571896424635      -5514.452786210533       -5915.346869751403       -6281.517456894868       -6618.8937896888665      -6931.672114805486       -7223.260374950597       -7496.257070465691       -7752.518208128718       -7993.1394680936455      -8219.683704043546       -8433.6505949393         -8636.124977572028       -8827.997513655317       -9010.180881013457       -9183.506395600973       -9348.499454010667       -9505.83759663137        -9655.915650735058       -9799.301250835795
0.0033333333333333375     -100.04927068124073      -105.65840330224424      -111.63782729673895      -118.11182463901108      -125.13767179275887      -132.78548708892436      -141.13284497267014      -150.27638537110226      -160.33933735676237      -171.4548981874144       -183.78397132078982      -197.52440858938908      -212.91357567696508      -230.26281665360943      -249.95085660452926      -272.4611098366361       -298.43793135223564      -328.67436265860243      -364.23062439574494      -406.6555174909776       -458.3198715648345       -522.8403275062794       -605.6287457699816       -714.7282028087345       -884.3183217210374       -1174.9854296451567      -1993.0708507186198      -3866.7479402560775      -4412.259808420941       -4890.817704598212       -5320.2586962693495      -5710.233729835716       -6067.18758078583        -6396.763502938317       -6702.95208758312        -6988.994272657732       -7257.356675037094       -7509.789990236704       -7747.295378767129       -7971.360897660751       -8183.4032421133         -8384.44844822096        -8575.331558629603       -8756.918091262685       -8929.991683266137       -9095.045369339572       -9252.716505238343       -9403.371590884359       -9547.547681048214
0.0036666666666666688     -100.0486760337293       -105.65767670267076      -111.63695685346984      -118.11077662327517      -125.13640265032107      -132.783940128509        -141.13094930469956      -150.27404761814586      -160.33642797707276      -171.451247996651        -183.77935665229532      -197.51852431402432      -212.90599741033728      -230.25291058821526      -249.9377004680562       -272.4433537129          -298.4134871466675       -328.6402989632504       -364.18260101691493      -406.5861467073381       -458.21529224945493      -522.674425838897        -605.3542845984883       -714.2631671034862       -883.253439725306        -1172.1192022616542      -1975.2101098893475      -3737.0493229114104      -4265.733451173006       -4730.385957789562       -5148.120160407285       -5528.150819024304       -5876.636974077287       -6198.976729231846       -6498.98439204366        -6779.757904370175       -7043.651115503013       -7292.325164596457       -7526.701697283969       -7748.20537135345        -7958.180878297021       -8157.604039604617       -8347.262545005045       -8527.98076730388        -8700.501285835127       -8865.28918670716        -9022.947091437774       -9173.816913345145       -9318.40899097941
0.0040000000000000036     -100.04809124058441      -105.65696045755257      -111.63609881726347      -118.1097435495269       -125.13515160810502      -132.78241523859555      -141.12908069369888      -150.27174324870197      -160.3335601695295       -171.44765000262538      -183.77480803188234      -197.51272434973572      -212.8985278676384       -230.2431468734426       -249.92473376350966      -272.4258539956051       -298.3893978061512       -328.60673226413513      -364.1352808931317       -406.51779698140444      -458.11226982465723      -522.5110437569261       -605.0841020842487       -713.8055872459679       -882.2082115694901       -1169.318227169752       -1958.158106122168       -3624.5085039936157      -4138.420149911317       -4590.761949216515       -4998.03717862434        -5369.098137317168       -5709.865636769241       -6025.533468569456       -6319.76902818711        -6595.551270087931       -6855.14039186345        -7100.123731207978       -7331.358423644168       -7550.217125121647       -7757.983503490471       -7955.591751723008       -8143.790472781642       -8323.368909137045       -8495.035203307945       -8659.230906113433       -8816.52935522967        -8967.25161811742        -9111.88518062938
0.004333333333333338      -100.0475159163164       -105.65625413589561      -111.63525267163105      -118.10872479567225      -125.13391791241237      -132.78091149999398      -141.12723801256456      -150.2694708717791       -160.33073220141134      -171.4441020289701       -183.7703227044013       -197.50700517762914      -212.89116250810073      -230.23351955931062      -249.9119485650908       -272.4085999410529       -298.365648420556        -328.57364162497635      -364.08863434381885      -406.4504251117438       -458.01073804446065      -522.3500729704205       -604.8180118842271       -713.3551338376207       -881.1816805563974       -1166.5787788805333      -1941.8294416033964      -3524.174027835582       -4024.8182358355343      -4466.044291192972       -4863.821226996852       -5226.6868528923305      -5560.354889060376       -5869.841530910239       -6158.686552998397       -6429.765650191726       -6685.257930388472       -6926.687246780977       -7154.856002569118       -7371.09215626767        -7576.626102903416       -7772.356140688923       -7958.997338880663       -8137.308150844633       -8307.966877269424       -8471.394670349917       -8628.139438817117       -8778.504148797849       -8922.956270145689
0.00466666666666667       -100.04694970536427      -105.65555734120096      -111.63441794142433      -118.1077197894143       -125.13270086988169      -132.77942806710777      -141.1254202244437       -150.26722920778255      -160.32794247878635      -171.4406020736816       -183.7658981354947       -197.50136356089428      -212.8838971550891       -230.22402317320623      -249.8993375832816       -272.3915816688196       -298.34222527971485      -328.54100779709336      -364.04263408385816      -406.3839913892288       -457.9106360353638       -522.1914140205165       -604.5558429644345       -712.9115047650569       -880.1729754244109       -1163.8975126322266      -1926.1543013375003      -3433.323220912937       -3921.8869935358307      -4352.950916481678       -4742.006734540485       -5097.3133096929005      -5424.400417821351       -5728.126494272331       -6011.918023203804       -6278.5591009599275      -6530.157049738224       -6768.179839981708       -6993.3823029173145      -7207.053008787371       -7410.375002829988       -7604.214935644731       -7789.258456127961       -7966.236572820661       -8135.801209320922       -8298.355503059036       -8454.424863891985       -8604.296269255427       -8748.419367181441
0.0050000000000000044     -100.04639260772807      -105.65487007346871      -111.63359462664337      -118.1067285307531       -125.13150048051308      -132.77796493993705      -141.12362732933633      -150.26501825671235      -160.32519100165467      -171.43715013675993      -183.76153432516261      -197.4957994995311       -212.8767318086036       -230.2146577151296       -249.88690081808227      -272.37479917890516      -298.3191283836276       -328.5088307804863       -363.99728011324976      -406.31849581385956      -457.81196379736696      -522.0350669072143       -604.2975953248707       -712.4747000282764       -879.1820961735311       -1161.2744284248326      -1911.1326853244802      -3351.956083225683       -3829.6264230122065      -4251.481825082636       -4632.5937012552395      -4980.977507718878       -5302.002223052166       -5600.388358655732       -5879.463438803332       -6141.931622392539       -6389.837749912706       -6624.601510810175       -6846.937324688759       -7058.099682680749       -7259.230203270189       -7451.168136590431       -7634.573824523537       -7810.1541750651295      -7978.53819946244        -8140.11340424079        -8295.385630454279       -8444.627979490157       -8588.27447173664
0.005333333333333339      -100.0458442818311       -105.65419195205254      -111.63278227113857      -118.10575047027724      -125.1303160786751       -132.77652130670842      -141.12185833187044      -150.26283679017592      -160.32247623987863      -171.43374429635065      -183.75722884054696      -197.49030988642394      -212.86966245945644      -230.20541793200636      -249.87463127258948      -272.3582429879142       -298.2963445743877       -328.47709210338985      -363.9525462490802       -406.25390028267026      -457.71466293086775      -521.880936251781        -604.0431050339444       -712.0444302143248       -878.2082109106447       -1158.70635302518        -1896.7007066450244      -3277.8554152176757      -3745.557427371783       -4158.957278317918       -4532.748000443529       -4874.727368222902       -5190.1203844184665      -5483.524032174045       -5758.177279190735       -6016.712792482612       -6261.11965715034        -6492.774736518296       -6712.357126139168       -6921.09099327073        -7120.080960133608       -7310.14194457758        -7491.911949069549       -7666.076306533702       -7833.243668996895       -7993.7876835434145      -8148.196800929743       -8296.731838388667       -8439.812853037367
0.0056666666666666705     -100.04530441149593      -105.6535226255999       -111.63198045386706      -118.10478510086284      -125.12914704997385      -132.77509641814203      -141.12011231331007      -150.26068367437153      -160.31979678117025      -171.4303827786525       -183.75297943625574      -197.48489185394592      -212.86268540758468      -230.19629897599967      -249.8625224900343       -272.3419043452271       -298.2738617122662       -328.445774725692        -363.90840834097344      -406.19016965635035      -457.6186795924845       -521.7289341517903       -603.7922210912093       -711.620428910728        -877.2505591108586       -1156.1904237665774      -1882.8053373922533      -3209.64337282058        -3668.134448455645       -4073.70002210836        -4440.687960167612       -4776.698494305277       -5086.825850493101       -5375.554772074629       -5646.043823312883       -5900.8607883258965      -6141.94424793196        -6370.632469969264       -6587.5731329125465      -6793.962973593347       -6990.873129079871       -7179.096569902135       -7359.251258104908       -7532.00296224534        -7697.94197823443        -7857.429486782375       -8010.938264361914       -8158.718103045282       -8301.176422225517
0.006000000000000005      -100.04477299672264      -105.65286209411084      -111.63118917482889      -118.10383242250995      -125.12799339440943      -132.77369027423785      -141.1183892736553       -150.25855890929924      -160.31715262552962      -171.42706558366555      -183.74878611228897      -197.47954540209707      -212.85580065298842      -230.18730084710964      -249.85057447041677      -272.325783250844        -298.25167979726314      -328.4148786473928       -363.8648663889296       -406.1273039349003       -457.52401378221737      -521.579060607242        -603.5449434966662       -711.2026961174859       -876.3091407741731       -1153.7266406490253      -1869.446577566167       -3147.319956034398       -3597.3574862637925      -3995.7100564539637      -4356.413580427489       -4686.890885966001       -4992.118621276072       -5276.480578357486       -5543.0630711697795      -5794.375609922394       -6032.31152225757        -6258.174711163079       -6472.585345008896       -6676.715623648602       -6871.606710108983       -7058.032012564096       -7236.591751629617       -7407.934142200047       -7572.633127175048       -7731.038813957674       -7883.610020750788       -8030.586773460011       -8172.365179301093
0.00633333333333334       -100.04424973326786      -105.65221001974123      -111.63040802917023      -118.10289194759562      -125.12685452121652      -132.77230215453648      -141.1166883295154       -150.25646140478477      -160.3145424150233       -171.42379100587524      -183.74464670972972      -197.4742677737463       -212.84900463826176      -230.17841888451827      -249.83878100619452      -272.3098712922376       -298.22978715990814      -328.3843874897741       -363.8218971803366       -406.0652693446433       -457.43061375961315      -521.4312311850352       -603.301127291094        -710.7909762231803       -875.3832283895928       -1151.3122816488897      -1856.5756092417314      -3089.7276836678493      -3531.9270374131474      -3923.5756324979166      -4278.42342625873        -4603.731401598843       -4904.368852727848       -5184.627358664379       -5447.527289043602       -5695.524983107121       -5930.472557336995       -6153.6427793591165      -6365.63125012783        -6567.5878280527295      -6760.526445809322       -6945.20277445276        -7122.201043982953       -7292.15349505099        -7455.619265309002       -7612.938467260723       -7764.557292250304       -7910.706980190505       -8051.77336730967
0.006666666666666671      -100.04373433858433      -105.65156608968387      -111.62963664204221      -118.1019632246387       -125.12572988342036      -132.77093139198803      -141.11500866299502      -150.2543901514925       -160.31196489243104      -171.42055746628773      -183.74055922985715      -197.46905641640552      -212.84229407013208      -230.16964877364094      -249.82713635127328      -272.2941606828312       -298.2081730002943       -328.3542860965409       -363.7794792377493       -406.0040346413761       -457.33843167127185      -521.2853678257464       -603.0606385286658       -710.3850331844028       -874.4721544959722       -1148.9448803165606      -1844.1513767550628      -3036.087009211887       -3470.9659639629945      -3856.34124569737        -4205.698202073601       -4526.148635352688       -4822.462820830541       -5098.847247360638       -5358.26147552988        -5603.1128247522665      -5835.215479634983       -6055.813674878118       -6265.480786636064       -6465.346098975717       -6656.398553444733       -6839.3775562863875      -7014.8527519311965      -7183.441699707879       -7345.689985671841       -7501.928600389291       -7652.592188581032       -7797.903998981541       -7938.240447959084
0.007000000000000006      -100.04322681267202      -105.65093030393872      -111.62887501344488      -118.10104625363923      -125.124619481021        -132.76957798659257      -141.11335027409427      -150.25234514942238      -160.30942005775273      -171.4173649649031       -183.73652367267138      -197.46391133007475      -212.83566894859948      -230.16099051447785      -249.81564050565322      -272.2786514226248       -298.1868373184218       -328.3245744676932       -363.737612561168        -405.94359982509866      -457.2474675171937       -521.141470529376        -602.8234772093817       -709.9848670011538       -873.5759190933118       -1146.6244366520384      -1832.173880106161       -2986.397932666512       -3414.4742659133344      -3794.0068960523263      -4138.237907872106       -4454.142587227538       -4746.400525584153       -5019.140244446264       -5275.265630628614       -5517.1391348578345      -5746.540289151538       -5964.687397720087       -6172.133954533601       -6369.990436417564       -6559.223033015218       -6740.556358064979       -6914.546875474348       -7081.798756170713       -7242.845288263567       -7398.009213343382       -7547.714709742972       -7692.177829833122       -7831.766421249343