<?xml version="1.0"?>
<VTKFile type="UnstructuredGrid" version="0.1" byte_order="LittleEndian">
  <UnstructuredGrid>
    <Piece NumberOfCells="250" NumberOfPoints="396">
      <CellData Scalars="p (Pa)">
        <DataArray type="Float32" Name="p (Pa)" NumberOfComponents="1" format="ascii">
          94885.6 94699 94425.5 94541.6 94666 94887.9 94636.4 94084.9 94431.7 94611.9 94990.3 94829
          94573 94598.9 94660.2 95097.4 94990.2 94836.3 94844 94871.5 95168 95094.2 95000.1 94991.3
          95005 94556.9 94184.5 93346.1 93935 94246.6 94492 93701.4 88620.5 93269.6 94014.6 94653.3
          94302.9 93418.8 93624.6 93788.1 94794.9 94567.4 94063.1 94321.4 94411.1 94900.6 94769.6 94578.9
          94635.6 94683.1 94011.5 93009.9 87126.4 92288.3 93412.8 93636.8 88115 -1.28411e+06 85573.3 92307.1
          94011.9 92820.9 85692.7 86892.4 87469.9 94211.4 93344.6 88205.1 92772.8 93126.6 94444.7 94106.5
          93371.9 93917.3 94089.1 93406.6 91977.5 83636.9 84990.9 91726.8 92724.1 85490.2 -1.34244e+06 -1.32955e+06
          83826 92823.9 86224.9 -1.32575e+06 -1.32421e+06 -1.26452e+06 92823.9 85946.4 -1.27748e+06 84827.2 86898.6 93675.9
          92519.2 87010.1 92480.8 93084.6 92681.7 90816.3 81717.1 78275.3 89736.4 91465.7 81996.6 -1.34517e+06
          -1.35329e+06 80229.1 91346.4 81136 -1.34874e+06 -1.34485e+06 81776.6 86491.7 -1.29813e+06 -1.33692e+06 83658.9 91444.5
          92462.2 86190 84807 91995.5 93124.2 91236.3 83365.4 72604.9 -1.3531e+06 80370.6 84314.5 -1.33993e+06
          -1.34756e+06 -1.3532e+06 78822.6 90876.5 80299.6 -1.34588e+06 80543.6 90158.6 91967.2 85200.5 83270.5 91270.8
          92640 93140.9 92105.5 91852.4 93001.1 93449.5 90620 81689.7 72635.3 -1.35983e+06 71830.8 83268.3
          -1.27642e+06 -1.35096e+06 -1.34897e+06 -1.34224e+06 91123.1 83047.5 79492.1 83884.8 85221.1 92887.8 91622 91109.5
          92162.8 92660.4 93557.2 93164.9 93006.5 93377.8 93614.5 90899.8 82737.6 72275 -1.35728e+06 79064.7
          83449.9 -1.32945e+06 -1.34729e+06 -1.34669e+06 80332.2 86771.1 -732903 -1.29375e+06 83109.4 91049.3 92689.6 87733.6
          86237.8 92151.3 93120.5 93665.5 93132.9 92890.6 93464.8 93732.9 92149.1 90217.5 80763.7 76637.5
          88791.1 91114.3 81302.8 -1.34812e+06 -1.34056e+06 83012.2 92052.8 86047.3 80353.8 84964.1 91543.5 93330.6
          92405.3 91540.7 92477.2 93245.8 93820.4 93532.3 93272.4 93537 93768 92419.4 90809.3 81643.6
          79874.4 89589.7 91748.7 83781.9 -1.34501e+06 -1.34396e+06 82999.4 92303.6 85292.1 -1.33941e+06 83231.3 91440.7
          93375 92328.4 86410.1 92126 93171.8 93803.3 93491.8 92899.6 93418.4 93700.1
        </DataArray>
        <DataArray type="Float32" Name="saturation" NumberOfComponents="1" format="ascii">
          0.119272 0.118262 0.116961 0.11749 0.118095 0.119284 0.117947 0.115586 0.116989 0.117826 0.119887 0.118954
          0.117638 0.117763 0.118066 0.120559 0.119887 0.118994 0.119037 0.119191 0.121026 0.120538 0.119947 0.119893
          0.119977 0.117562 0.115964 0.113295 0.115053 0.116209 0.11726 0.114297 0.107608 0.1131 0.115331 0.118031
          0.116438 0.113487 0.114066 0.114568 0.118767 0.117612 0.115507 0.116515 0.116898 0.119357 0.118631 0.117667
          0.117943 0.118181 0.11532 0.112484 0.106962 0.111088 0.113471 0.114102 0.107362 0.10113 0.106491 0.111119
          0.115322 0.112078 0.106522 0.10688 0.10709 0.116069 0.113291 0.107404 0.111979 0.112752 0.117047 0.115667
          0.113363 0.114993 0.115602 0.113454 0.110599 0.106081 0.106351 0.110244 0.111882 0.10647 0.10097 0.101006
          0.106115 0.112084 0.106669 0.101016 0.10102 0.101184 0.112084 0.10659 0.101148 0.106315 0.106882 0.114219
          0.111491 0.106921 0.111422 0.112654 0.111798 0.109191 0.105797 0.105463 0.108286 0.109907 0.105833 0.100963
          0.100941 0.105631 0.109764 0.105727 0.100953 0.100964 0.105804 0.10675 0.101092 0.100985 0.106085 0.109881
          0.111388 0.106659 0.10631 0.110626 0.112747 0.109636 0.106035 0.105161 0.100941 0.105645 0.106208 0.100977
          0.100956 0.100941 0.105505 0.109251 0.105638 0.100961 0.105663 0.108604 0.110584 0.1064 0.106019 0.109675
          0.111717 0.112786 0.110793 0.110418 0.112465 0.11357 0.109003 0.105793 0.105163 0.100923 0.105134 0.106019
          0.101151 0.100947 0.100952 0.100971 0.10951 0.105984 0.105562 0.106126 0.106404 0.112218 0.110105 0.109495
          0.110884 0.111757 0.11387 0.112843 0.112477 0.113378 0.114036 0.109274 0.105936 0.105149 0.10093 0.105525
          0.106049 0.101006 0.100957 0.100959 0.105641 0.106839 0.102639 0.101104 0.105993 0.10943 0.111814 0.107196
          0.106673 0.110865 0.112738 0.114188 0.112767 0.112224 0.113612 0.114394 0.110862 0.108652 0.105686 0.105353
          0.107699 0.1095 0.105747 0.100955 0.100975 0.105978 0.110712 0.106618 0.105643 0.106345 0.110005 0.113255
          0.111288 0.110001 0.111415 0.113041 0.114672 0.1138 0.113107 0.113813 0.114504 0.111312 0.109184 0.105788
          0.105597 0.108184 0.110274 0.106107 0.100963 0.100966 0.105976 0.111114 0.106421 0.100979 0.106013 0.109877
          0.113371 0.111155 0.106725 0.110825 0.11286 0.114616 0.113686 0.112243 0.113486 0.114293
        </DataArray>
        <DataArray type="Float32" Name="process rank" NumberOfComponents="1" format="ascii">
          0 0 0 0 0 0 0 0 0 0 0 0
          0 0 0 0 0 0 0 0 0 0 0 0
          0 0 0 0 0 0 0 0 0 0 0 0
          0 0 0 0 0 0 0 0 0 0 0 0
          0 0 0 0 0 0 0 0 0 0 0 0
          0 0 0 0 0 0 0 0 0 0 0 0
          0 0 0 0 0 0 0 0 0 0 0 0
          0 0 0 0 0 0 0 0 0 0 0 0
          0 0 0 0 0 0 0 0 0 0 0 0
          0 0 0 0 0 0 0 0 0 0 0 0
          0 0 0 0 0 0 0 0 0 0 0 0
          0 0 0 0 0 0 0 0 0 0 0 0
          0 0 0 0 0 0 0 0 0 0 0 0
          0 0 0 0 0 0 0 0 0 0 0 0
          0 0 0 0 0 0 0 0 0 0 0 0
          0 0 0 0 0 0 0 0 0 0 0 0
          0 0 0 0 0 0 0 0 0 0 0 0
          0 0 0 0 0 0 0 0 0 0 0 0
          0 0 0 0 0 0 0 0 0 0 0 0
          0 0 0 0 0 0 0 0 0 0 0 0
          0 0 0 0 0 0 0 0 0 0
        </DataArray>
      </CellData>
      <Points>
        <DataArray type="Float32" Name="Coordinates" NumberOfComponents="3" format="ascii">
          -0.04 -0.04 -0.15 -0.024 -0.04 -0.15 -0.04 -0.024 -0.15 -0.024 -0.024 -0.15
          -0.04 -0.04 -0.135 -0.024 -0.04 -0.135 -0.04 -0.024 -0.135 -0.024 -0.024 -0.135
          -0.008 -0.04 -0.15 -0.008 -0.024 -0.15 -0.008 -0.04 -0.135 -0.008 -0.024 -0.135
          0.008 -0.04 -0.15 0.008 -0.024 -0.15 0.008 -0.04 -0.135 0.008 -0.024 -0.135
          0.024 -0.04 -0.15 0.024 -0.024 -0.15 0.024 -0.04 -0.135 0.024 -0.024 -0.135
          0.04 -0.04 -0.15 0.04 -0.024 -0.15 0.04 -0.04 -0.135 0.04 -0.024 -0.135
          -0.04 -0.008 -0.15 -0.024 -0.008 -0.15 -0.04 -0.008 -0.135 -0.024 -0.008 -0.135
          -0.008 -0.008 -0.15 -0.008 -0.008 -0.135 0.008 -0.008 -0.15 0.008 -0.008 -0.135
          0.024 -0.008 -0.15 0.024 -0.008 -0.135 0.04 -0.008 -0.15 0.04 -0.008 -0.135
          -0.04 0.008 -0.15 -0.024 0.008 -0.15 -0.04 0.008 -0.135 -0.024 0.008 -0.135
          -0.008 0.008 -0.15 -0.008 0.008 -0.135 0.008 0.008 -0.15 0.008 0.008 -0.135
          0.024 0.008 -0.15 0.024 0.008 -0.135 0.04 0.008 -0.15 0.04 0.008 -0.135
          -0.04 0.024 -0.15 -0.024 0.024 -0.15 -0.04 0.024 -0.135 -0.024 0.024 -0.135
          -0.008 0.024 -0.15 -0.008 0.024 -0.135 0.008 0.024 -0.15 0.008 0.024 -0.135
          0.024 0.024 -0.15 0.024 0.024 -0.135 0.04 0.024 -0.15 0.04 0.024 -0.135
          -0.04 0.04 -0.15 -0.024 0.04 -0.15 -0.04 0.04 -0.135 -0.024 0.04 -0.135
          -0.008 0.04 -0.15 -0.008 0.04 -0.135 0.008 0.04 -0.15 0.008 0.04 -0.135
          0.024 0.04 -0.15 0.024 0.04 -0.135 0.04 0.04 -0.15 0.04 0.04 -0.135
          -0.04 -0.04 -0.12 -0.024 -0.04 -0.12 -0.04 -0.024 -0.12 -0.024 -0.024 -0.12
          -0.008 -0.04 -0.12 -0.008 -0.024 -0.12 0.008 -0.04 -0.12 0.008 -0.024 -0.12
          0.024 -0.04 -0.12 0.024 -0.024 -0.12 0.04 -0.04 -0.12 0.04 -0.024 -0.12
          -0.04 -0.008 -0.12 -0.024 -0.008 -0.12 -0.008 -0.008 -0.12 0.008 -0.008 -0.12
          0.024 -0.008 -0.12 0.04 -0.008 -0.12 -0.04 0.008 -0.12 -0.024 0.008 -0.12
          -0.008 0.008 -0.12 0.008 0.008 -0.12 0.024 0.008 -0.12 0.04 0.008 -0.12
          -0.04 0.024 -0.12 -0.024 0.024 -0.12 -0.008 0.024 -0.12 0.008 0.024 -0.12
          0.024 0.024 -0.12 0.04 0.024 -0.12 -0.04 0.04 -0.12 -0.024 0.04 -0.12
          -0.008 0.04 -0.12 0.008 0.04 -0.12 0.024 0.04 -0.12 0.04 0.04 -0.12
          -0.04 -0.04 -0.105 -0.024 -0.04 -0.105 -0.04 -0.024 -0.105 -0.024 -0.024 -0.105
          -0.008 -0.04 -0.105 -0.008 -0.024 -0.105 0.008 -0.04 -0.105 0.008 -0.024 -0.105
          0.024 -0.04 -0.105 0.024 -0.024 -0.105 0.04 -0.04 -0.105 0.04 -0.024 -0.105
          -0.04 -0.008 -0.105 -0.024 -0.008 -0.105 -0.008 -0.008 -0.105 0.008 -0.008 -0.105
          0.024 -0.008 -0.105 0.04 -0.008 -0.105 -0.04 0.008 -0.105 -0.024 0.008 -0.105
          -0.008 0.008 -0.105 0.008 0.008 -0.105 0.024 0.008 -0.105 0.04 0.008 -0.105
          -0.04 0.024 -0.105 -0.024 0.024 -0.105 -0.008 0.024 -0.105 0.008 0.024 -0.105
          0.024 0.024 -0.105 0.04 0.024 -0.105 -0.04 0.04 -0.105 -0.024 0.04 -0.105
          -0.008 0.04 -0.105 0.008 0.04 -0.105 0.024 0.04 -0.105 0.04 0.04 -0.105
          -0.04 -0.04 -0.09 -0.024 -0.04 -0.09 -0.04 -0.024 -0.09 -0.024 -0.024 -0.09
          -0.008 -0.04 -0.09 -0.008 -0.024 -0.09 0.008 -0.04 -0.09 0.008 -0.024 -0.09
          0.024 -0.04 -0.09 0.024 -0.024 -0.09 0.04 -0.04 -0.09 0.04 -0.024 -0.09
          -0.04 -0.008 -0.09 -0.024 -0.008 -0.09 -0.008 -0.008 -0.09 0.008 -0.008 -0.09
          0.024 -0.008 -0.09 0.04 -0.008 -0.09 -0.04 0.008 -0.09 -0.024 0.008 -0.09
          -0.008 0.008 -0.09 0.008 0.008 -0.09 0.024 0.008 -0.09 0.04 0.008 -0.09
          -0.04 0.024 -0.09 -0.024 0.024 -0.09 -0.008 0.024 -0.09 0.008 0.024 -0.09
          0.024 0.024 -0.09 0.04 0.024 -0.09 -0.04 0.04 -0.09 -0.024 0.04 -0.09
          -0.008 0.04 -0.09 0.008 0.04 -0.09 0.024 0.04 -0.09 0.04 0.04 -0.09
          -0.04 -0.04 -0.075 -0.024 -0.04 -0.075 -0.04 -0.024 -0.075 -0.024 -0.024 -0.075
          -0.008 -0.04 -0.075 -0.008 -0.024 -0.075 0.008 -0.04 -0.075 0.008 -0.024 -0.075
          0.024 -0.04 -0.075 0.024 -0.024 -0.075 0.04 -0.04 -0.075 0.04 -0.024 -0.075
          -0.04 -0.008 -0.075 -0.024 -0.008 -0.075 -0.008 -0.008 -0.075 0.008 -0.008 -0.075
          0.024 -0.008 -0.075 0.04 -0.008 -0.075 -0.04 0.008 -0.075 -0.024 0.008 -0.075
          -0.008 0.008 -0.075 0.008 0.008 -0.075 0.024 0.008 -0.075 0.04 0.008 -0.075
          -0.04 0.024 -0.075 -0.024 0.024 -0.075 -0.008 0.024 -0.075 0.008 0.024 -0.075
          0.024 0.024 -0.075 0.04 0.024 -0.075 -0.04 0.04 -0.075 -0.024 0.04 -0.075
          -0.008 0.04 -0.075 0.008 0.04 -0.075 0.024 0.04 -0.075 0.04 0.04 -0.075
          -0.04 -0.04 -0.06 -0.024 -0.04 -0.06 -0.04 -0.024 -0.06 -0.024 -0.024 -0.06
          -0.008 -0.04 -0.06 -0.008 -0.024 -0.06 0.008 -0.04 -0.06 0.008 -0.024 -0.06
          0.024 -0.04 -0.06 0.024 -0.024 -0.06 0.04 -0.04 -0.06 0.04 -0.024 -0.06
          -0.04 -0.008 -0.06 -0.024 -0.008 -0.06 -0.008 -0.008 -0.06 0.008 -0.008 -0.06
          0.024 -0.008 -0.06 0.04 -0.008 -0.06 -0.04 0.008 -0.06 -0.024 0.008 -0.06
          -0.008 0.008 -0.06 0.008 0.008 -0.06 0.024 0.008 -0.06 0.04 0.008 -0.06
          -0.04 0.024 -0.06 -0.024 0.024 -0.06 -0.008 0.024 -0.06 0.008 0.024 -0.06
          0.024 0.024 -0.06 0.04 0.024 -0.06 -0.04 0.04 -0.06 -0.024 0.04 -0.06
          -0.008 0.04 -0.06 0.008 0.04 -0.06 0.024 0.04 -0.06 0.04 0.04 -0.06
          -0.04 -0.04 -0.045 -0.024 -0.04 -0.045 -0.04 -0.024 -0.045 -0.024 -0.024 -0.045
          -0.008 -0.04 -0.045 -0.008 -0.024 -0.045 0.008 -0.04 -0.045 0.008 -0.024 -0.045
          0.024 -0.04 -0.045 0.024 -0.024 -0.045 0.04 -0.04 -0.045 0.04 -0.024 -0.045
          -0.04 -0.008 -0.045 -0.024 -0.008 -0.045 -0.008 -0.008 -0.045 0.008 -0.008 -0.045
          0.024 -0.008 -0.045 0.04 -0.008 -0.045 -0.04 0.008 -0.045 -0.024 0.008 -0.045
          -0.008 0.008 -0.045 0.008 0.008 -0.045 0.024 0.008 -0.045 0.04 0.008 -0.045
          -0.04 0.024 -0.045 -0.024 0.024 -0.045 -0.008 0.024 -0.045 0.008 0.024 -0.045
          0.024 0.024 -0.045 0.04 0.024 -0.045 -0.04 0.04 -0.045 -0.024 0.04 -0.045
          -0.008 0.04 -0.045 0.008 0.04 -0.045 0.024 0.04 -0.045 0.04 0.04 -0.045
          -0.04 -0.04 -0.03 -0.024 -0.04 -0.03 -0.04 -0.024 -0.03 -0.024 -0.024 -0.03
          -0.008 -0.04 -0.03 -0.008 -0.024 -0.03 0.008 -0.04 -0.03 0.008 -0.024 -0.03
          0.024 -0.04 -0.03 0.024 -0.024 -0.03 0.04 -0.04 -0.03 0.04 -0.024 -0.03
          -0.04 -0.008 -0.03 -0.024 -0.008 -0.03 -0.008 -0.008 -0.03 0.008 -0.008 -0.03
          0.024 -0.008 -0.03 0.04 -0.008 -0.03 -0.04 0.008 -0.03 -0.024 0.008 -0.03
          -0.008 0.008 -0.03 0.008 0.008 -0.03 0.024 0.008 -0.03 0.04 0.008 -0.03
          -0.04 0.024 -0.03 -0.024 0.024 -0.03 -0.008 0.024 -0.03 0.008 0.024 -0.03
          0.024 0.024 -0.03 0.04 0.024 -0.03 -0.04 0.04 -0.03 -0.024 0.04 -0.03
          -0.008 0.04 -0.03 0.008 0.04 -0.03 0.024 0.04 -0.03 0.04 0.04 -0.03
          -0.04 -0.04 -0.015 -0.024 -0.04 -0.015 -0.04 -0.024 -0.015 -0.024 -0.024 -0.015
          -0.008 -0.04 -0.015 -0.008 -0.024 -0.015 0.008 -0.04 -0.015 0.008 -0.024 -0.015
          0.024 -0.04 -0.015 0.024 -0.024 -0.015 0.04 -0.04 -0.015 0.04 -0.024 -0.015
          -0.04 -0.008 -0.015 -0.024 -0.008 -0.015 -0.008 -0.008 -0.015 0.008 -0.008 -0.015
          0.024 -0.008 -0.015 0.04 -0.008 -0.015 -0.04 0.008 -0.015 -0.024 0.008 -0.015
          -0.008 0.008 -0.015 0.008 0.008 -0.015 0.024 0.008 -0.015 0.04 0.008 -0.015
          -0.04 0.024 -0.015 -0.024 0.024 -0.015 -0.008 0.024 -0.015 0.008 0.024 -0.015
          0.024 0.024 -0.015 0.04 0.024 -0.015 -0.04 0.04 -0.015 -0.024 0.04 -0.015
          -0.008 0.04 -0.015 0.008 0.04 -0.015 0.024 0.04 -0.015 0.04 0.04 -0.015
          -0.04 -0.04 1.38778e-17 -0.024 -0.04 1.38778e-17 -0.04 -0.024 1.38778e-17 -0.024 -0.024 1.38778e-17
          -0.008 -0.04 1.38778e-17 -0.008 -0.024 1.38778e-17 0.008 -0.04 1.38778e-17 0.008 -0.024 1.38778e-17
          0.024 -0.04 1.38778e-17 0.024 -0.024 1.38778e-17 0.04 -0.04 1.38778e-17 0.04 -0.024 1.38778e-17
          -0.04 -0.008 1.38778e-17 -0.024 -0.008 1.38778e-17 -0.008 -0.008 1.38778e-17 0.008 -0.008 1.38778e-17
          0.024 -0.008 1.38778e-17 0.04 -0.008 1.38778e-17 -0.04 0.008 1.38778e-17 -0.024 0.008 1.38778e-17
          -0.008 0.008 1.38778e-17 0.008 0.008 1.38778e-17 0.024 0.008 1.38778e-17 0.04 0.008 1.38778e-17
          -0.04 0.024 1.38778e-17 -0.024 0.024 1.38778e-17 -0.008 0.024 1.38778e-17 0.008 0.024 1.38778e-17
          0.024 0.024 1.38778e-17 0.04 0.024 1.38778e-17 -0.04 0.04 1.38778e-17 -0.024 0.04 1.38778e-17
          -0.008 0.04 1.38778e-17 0.008 0.04 1.38778e-17 0.024 0.04 1.38778e-17 0.04 0.04 1.38778e-17
        </DataArray>
      </Points>
      <Cells>
        <DataArray type="Int32" Name="connectivity" NumberOfComponents="1" format="ascii">
          0 1 3 2 4 5 7 6 1 8 9 3
          5 10 11 7 8 12 13 9 10 14 15 11
          12 16 17 13 14 18 19 15 16 20 21 17
          18 22 23 19 2 3 25 24 6 7 27 26
          3 9 28 25 7 11 29 27 9 13 30 28
          11 15 31 29 13 17 32 30 15 19 33 31
          17 21 34 32 19 23 35 33 24 25 37 36
          26 27 39 38 25 28 40 37 27 29 41 39
          28 30 42 40 29 31 43 41 30 32 44 42
          31 33 45 43 32 34 46 44 33 35 47 45
          36 37 49 48 38 39 51 50 37 40 52 49
          39 41 53 51 40 42 54 52 41 43 55 53
          42 44 56 54 43 45 57 55 44 46 58 56
          45 47 59 57 48 49 61 60 50 51 63 62
          49 52 64 61 51 53 65 63 52 54 66 64
          53 55 67 65 54 56 68 66 55 57 69 67
          56 58 70 68 57 59 71 69 4 5 7 6
          72 73 75 74 5 10 11 7 73 76 77 75
          10 14 15 11 76 78 79 77 14 18 19 15
          78 80 81 79 18 22 23 19 80 82 83 81
          6 7 27 26 74 75 85 84 7 11 29 27
          75 77 86 85 11 15 31 29 77 79 87 86
          15 19 33 31 79 81 88 87 19 23 35 33
          81 83 89 88 26 27 39 38 84 85 91 90
          27 29 41 39 85 86 92 91 29 31 43 41
          86 87 93 92 31 33 45 43 87 88 94 93
          33 35 47 45 88 89 95 94 38 39 51 50
          90 91 97 96 39 41 53 51 91 92 98 97
          41 43 55 53 92 93 99 98 43 45 57 55
          93 94 100 99 45 47 59 57 94 95 101 100
          50 51 63 62 96 97 103 102 51 53 65 63
          97 98 104 103 53 55 67 65 98 99 105 104
          55 57 69 67 99 100 106 105 57 59 71 69
          100 101 107 106 72 73 75 74 108 109 111 110
          73 76 77 75 109 112 113 111 76 78 79 77
          112 114 115 113 78 80 81 79 114 116 117 115
          80 82 83 81 116 118 119 117 74 75 85 84
          110 111 121 120 75 77 86 85 111 113 122 121
          77 79 87 86 113 115 123 122 79 81 88 87
          115 117 124 123 81 83 89 88 117 119 125 124
          84 85 91 90 120 121 127 126 85 86 92 91
          121 122 128 127 86 87 93 92 122 123 129 128
          87 88 94 93 123 124 130 129 88 89 95 94
          124 125 131 130 90 91 97 96 126 127 133 132
          91 92 98 97 127 128 134 133 92 93 99 98
          128 129 135 134 93 94 100 99 129 130 136 135
          94 95 101 100 130 131 137 136 96 97 103 102
          132 133 139 138 97 98 104 103 133 134 140 139
          98 99 105 104 134 135 141 140 99 100 106 105
          135 136 142 141 100 101 107 106 136 137 143 142
          108 109 111 110 144 145 147 146 109 112 113 111
          145 148 149 147 112 114 115 113 148 150 151 149
          114 116 117 115 150 152 153 151 116 118 119 117
          152 154 155 153 110 111 121 120 146 147 157 156
          111 113 122 121 147 149 158 157 113 115 123 122
          149 151 159 158 115 117 124 123 151 153 160 159
          117 119 125 124 153 155 161 160 120 121 127 126
          156 157 163 162 121 122 128 127 157 158 164 163
          122 123 129 128 158 159 165 164 123 124 130 129
          159 160 166 165 124 125 131 130 160 161 167 166
          126 127 133 132 162 163 169 168 127 128 134 133
          163 164 170 169 128 129 135 134 164 165 171 170
          129 130 136 135 165 166 172 171 130 131 137 136
          166 167 173 172 132 133 139 138 168 169 175 174
          133 134 140 139 169 170 176 175 134 135 141 140
          170 171 177 176 135 136 142 141 171 172 178 177
          136 137 143 142 172 173 179 178 144 145 147 146
          180 181 183 182 145 148 149 147 181 184 185 183
          148 150 151 149 184 186 187 185 150 152 153 151
          186 188 189 187 152 154 155 153 188 190 191 189
          146 147 157 156 182 183 193 192 147 149 158 157
          183 185 194 193 149 151 159 158 185 187 195 194
          151 153 160 159 187 189 196 195 153 155 161 160
          189 191 197 196 156 157 163 162 192 193 199 198
          157 158 164 163 193 194 200 199 158 159 165 164
          194 195 201 200 159 160 166 165 195 196 202 201
          160 161 167 166 196 197 203 202 162 163 169 168
          198 199 205 204 163 164 170 169 199 200 206 205
          164 165 171 170 200 201 207 206 165 166 172 171
          201 202 208 207 166 167 173 172 202 203 209 208
          168 169 175 174 204 205 211 210 169 170 176 175
          205 206 212 211 170 171 177 176 206 207 213 212
          171 172 178 177 207 208 214 213 172 173 179 178
          208 209 215 214 180 181 183 182 216 217 219 218
          181 184 185 183 217 220 221 219 184 186 187 185
          220 222 223 221 186 188 189 187 222 224 225 223
          188 190 191 189 224 226 227 225 182 183 193 192
          218 219 229 228 183 185 194 193 219 221 230 229
          185 187 195 194 221 223 231 230 187 189 196 195
          223 225 232 231 189 191 197 196 225 227 233 232
          192 193 199 198 228 229 235 234 193 194 200 199
          229 230 236 235 194 195 201 200 230 231 237 236
          195 196 202 201 231 232 238 237 196 197 203 202
          232 233 239 238 198 199 205 204 234 235 241 240
          199 200 206 205 235 236 242 241 200 201 207 206
          236 237 243 242 201 202 208 207 237 238 244 243
          202 203 209 208 238 239 245 244 204 205 211 210
          240 241 247 246 205 206 212 211 241 242 248 247
          206 207 213 212 242 243 249 248 207 208 214 213
          243 244 250 249 208 209 215 214 244 245 251 250
          216 217 219 218 252 253 255 254 217 220 221 219
          253 256 257 255 220 222 223 221 256 258 259 257
          222 224 225 223 258 260 261 259 224 226 227 225
          260 262 263 261 218 219 229 228 254 255 265 264
          219 221 230 229 255 257 266 265 221 223 231 230
          257 259 267 266 223 225 232 231 259 261 268 267
          225 227 233 232 261 263 269 268 228 229 235 234
          264 265 271 270 229 230 236 235 265 266 272 271
          230 231 237 236 266 267 273 272 231 232 238 237
          267 268 274 273 232 233 239 238 268 269 275 274
          234 235 241 240 270 271 277 276 235 236 242 241
          271 272 278 277 236 237 243 242 272 273 279 278
          237 238 244 243 273 274 280 279 238 239 245 244
          274 275 281 280 240 241 247 246 276 277 283 282
          241 242 248 247 277 278 284 283 242 243 249 248
          278 279 285 284 243 244 250 249 279 280 286 285
          244 245 251 250 280 281 287 286 252 253 255 254
          288 289 291 290 253 256 257 255 289 292 293 291
          256 258 259 257 292 294 295 293 258 260 261 259
          294 296 297 295 260 262 263 261 296 298 299 297
          254 255 265 264 290 291 301 300 255 257 266 265
          291 293 302 301 257 259 267 266 293 295 303 302
          259 261 268 267 295 297 304 303 261 263 269 268
          297 299 305 304 264 265 271 270 300 301 307 306
          265 266 272 271 301 302 308 307 266 267 273 272
          302 303 309 308 267 268 274 273 303 304 310 309
          268 269 275 274 304 305 311 310 270 271 277 276
          306 307 313 312 271 272 278 277 307 308 314 313
          272 273 279 278 308 309 315 314 273 274 280 279
          309 310 316 315 274 275 281 280 310 311 317 316
          276 277 283 282 312 313 319 318 277 278 284 283
          313 314 320 319 278 279 285 284 314 315 321 320
          279 280 286 285 315 316 322 321 280 281 287 286
          316 317 323 322 288 289 291 290 324 325 327 326
          289 292 293 291 325 328 329 327 292 294 295 293
          328 330 331 329 294 296 297 295 330 332 333 331
          296 298 299 297 332 334 335 333 290 291 301 300
          326 327 337 336 291 293 302 301 327 329 338 337
          293 295 303 302 329 331 339 338 295 297 304 303
          331 333 340 339 297 299 305 304 333 335 341 340
          300 301 307 306 336 337 343 342 301 302 308 307
          337 338 344 343 302 303 309 308 338 339 345 344
          303 304 310 309 339 340 346 345 304 305 311 310
          340 341 347 346 306 307 313 312 342 343 349 348
          307 308 314 313 343 344 350 349 308 309 315 314
          344 345 351 350 309 310 316 315 345 346 352 351
          310 311 317 316 346 347 353 352 312 313 319 318
          348 349 355 354 313 314 320 319 349 350 356 355
          314 315 321 320 350 351 357 356 315 316 322 321
          351 352 358 357 316 317 323 322 352 353 359 358
          324 325 327 326 360 361 363 362 325 328 329 327
          361 364 365 363 328 330 331 329 364 366 367 365
          330 332 333 331 366 368 369 367 332 334 335 333
          368 370 371 369 326 327 337 336 362 363 373 372
          327 329 338 337 363 365 374 373 329 331 339 338
          365 367 375 374 331 333 340 339 367 369 376 375
          333 335 341 340 369 371 377 376 336 337 343 342
          372 373 379 378 337 338 344 343 373 374 380 379
          338 339 345 344 374 375 381 380 339 340 346 345
          375 376 382 381 340 341 347 346 376 377 383 382
          342 343 349 348 378 379 385 384 343 344 350 349
          379 380 386 385 344 345 351 350 380 381 387 386
          345 346 352 351 381 382 388 387 346 347 353 352
          382 383 389 388 348 349 355 354 384 385 391 390
          349 350 356 355 385 386 392 391 350 351 357 356
          386 387 393 392 351 352 358 357 387 388 394 393
          352 353 359 358 388 389 395 394
        </DataArray>
        <DataArray type="Int32" Name="offsets" NumberOfComponents="1" format="ascii">
          8 16 24 32 40 48 56 64 72 80 88 96
          104 112 120 128 136 144 152 160 168 176 184 192
          200 208 216 224 232 240 248 256 264 272 280 288
          296 304 312 320 328 336 344 352 360 368 376 384
          392 400 408 416 424 432 440 448 456 464 472 480
          488 496 504 512 520 528 536 544 552 560 568 576
          584 592 600 608 616 624 632 640 648 656 664 672
          680 688 696 704 712 720 728 736 744 752 760 768
          776 784 792 800 808 816 824 832 840 848 856 864
          872 880 888 896 904 912 920 928 936 944 952 960
          968 976 984 992 1000 1008 1016 1024 1032 1040 1048 1056
          1064 1072 1080 1088 1096 1104 1112 1120 1128 1136 1144 1152
          1160 1168 1176 1184 1192 1200 1208 1216 1224 1232 1240 1248
          1256 1264 1272 1280 1288 1296 1304 1312 1320 1328 1336 1344
          1352 1360 1368 1376 1384 1392 1400 1408 1416 1424 1432 1440
          1448 1456 1464 1472 1480 1488 1496 1504 1512 1520 1528 1536
          1544 1552 1560 1568 1576 1584 1592 1600 1608 1616 1624 1632
          1640 1648 1656 1664 1672 1680 1688 1696 1704 1712 1720 1728
          1736 1744 1752 1760 1768 1776 1784 1792 1800 1808 1816 1824
          1832 1840 1848 1856 1864 1872 1880 1888 1896 1904 1912 1920
          1928 1936 1944 1952 1960 1968 1976 1984 1992 2000
        </DataArray>
        <DataArray type="UInt8" Name="types" NumberOfComponents="1" format="ascii">
          12 12 12 12 12 12 12 12 12 12 12 12
          12 12 12 12 12 12 12 12 12 12 12 12
          12 12 12 12 12 12 12 12 12 12 12 12
          12 12 12 12 12 12 12 12 12 12 12 12
          12 12 12 12 12 12 12 12 12 12 12 12
          12 12 12 12 12 12 12 12 12 12 12 12
          12 12 12 12 12 12 12 12 12 12 12 12
          12 12 12 12 12 12 12 12 12 12 12 12
          12 12 12 12 12 12 12 12 12 12 12 12
          12 12 12 12 12 12 12 12 12 12 12 12
          12 12 12 12 12 12 12 12 12 12 12 12
          12 12 12 12 12 12 12 12 12 12 12 12
          12 12 12 12 12 12 12 12 12 12 12 12
          12 12 12 12 12 12 12 12 12 12 12 12
          12 12 12 12 12 12 12 12 12 12 12 12
          12 12 12 12 12 12 12 12 12 12 12 12
          12 12 12 12 12 12 12 12 12 12 12 12
          12 12 12 12 12 12 12 12 12 12 12 12
          12 12 12 12 12 12 12 12 12 12 12 12
          12 12 12 12 12 12 12 12 12 12 12 12
          12 12 12 12 12 12 12 12 12 12
        </DataArray>
      </Cells>
    </Piece>
  </UnstructuredGrid>
</VTKFile>
