<?xml version="1.0"?>
<VTKFile type="UnstructuredGrid" version="0.1" byte_order="LittleEndian">
  <UnstructuredGrid>
    <Piece NumberOfCells="45" NumberOfPoints="96">
      <CellData Scalars="p (Pa)">
        <DataArray type="Float32" Name="p (Pa)" NumberOfComponents="1" format="ascii">
          -493679 -561879 -548155 -473716 -551758 -558207 -432995 -468591 -481502 -693373 -1.14832e+06 -844211
          -639384 -1.26082e+06 -1.14766e+06 -518003 -622018 -638876 -1.10893e+06 -1.31575e+06 -1.28872e+06 -771011 -1.29149e+06 -1.27741e+06
          -593138 -708811 -739460 -897172 -1.31584e+06 -1.32346e+06 -778558 -1.29441e+06 -1.26009e+06 -622434 -736179 -756041
          -854154 -1.31093e+06 -1.01397e+06 -776714 -1.29344e+06 -911256 -628622 -730546 -696731
        </DataArray>
        <DataArray type="Float32" Name="saturation" NumberOfComponents="1" format="ascii">
          0.747099 0.741777 0.742798 0.748783 0.742528 0.742048 0.752425 0.749226 0.748119 0.733022 0.711748 0.724747
          0.73641 0.707799 0.711772 0.745128 0.737558 0.736443 0.713224 0.705998 0.706875 0.728567 0.706784 0.707247
          0.739534 0.732099 0.730323 0.72218 0.705996 0.705752 0.728157 0.706689 0.707823 0.73753 0.73051 0.729392
          0.724253 0.706153 0.717008 0.728257 0.70672 0.721522 0.737118 0.730832 0.73282
        </DataArray>
        <DataArray type="Float32" Name="process rank" NumberOfComponents="1" format="ascii">
          0 0 0 0 0 0 0 0 0 0 0 0
          0 0 0 0 0 0 0 0 0 0 0 0
          0 0 0 0 0 0 0 0 0 0 0 0
          0 0 0 0 0 0 0 0 0
        </DataArray>
      </CellData>
      <Points>
        <DataArray type="Float32" Name="Coordinates" NumberOfComponents="3" format="ascii">
          -0.04 -0.04 -0.15 -0.0133333 -0.04 -0.15 -0.04 -0.0133333 -0.15 -0.0133333 -0.0133333 -0.15
          -0.04 -0.04 -0.12 -0.0133333 -0.04 -0.12 -0.04 -0.0133333 -0.12 -0.0133333 -0.0133333 -0.12
          0.0133333 -0.04 -0.15 0.0133333 -0.0133333 -0.15 0.0133333 -0.04 -0.12 0.0133333 -0.0133333 -0.12
          0.04 -0.04 -0.15 0.04 -0.0133333 -0.15 0.04 -0.04 -0.12 0.04 -0.0133333 -0.12
          -0.04 0.0133333 -0.15 -0.0133333 0.0133333 -0.15 -0.04 0.0133333 -0.12 -0.0133333 0.0133333 -0.12
          0.0133333 0.0133333 -0.15 0.0133333 0.0133333 -0.12 0.04 0.0133333 -0.15 0.04 0.0133333 -0.12
          -0.04 0.04 -0.15 -0.0133333 0.04 -0.15 -0.04 0.04 -0.12 -0.0133333 0.04 -0.12
          0.0133333 0.04 -0.15 0.0133333 0.04 -0.12 0.04 0.04 -0.15 0.04 0.04 -0.12
          -0.04 -0.04 -0.09 -0.0133333 -0.04 -0.09 -0.04 -0.0133333 -0.09 -0.0133333 -0.0133333 -0.09
          0.0133333 -0.04 -0.09 0.0133333 -0.0133333 -0.09 0.04 -0.04 -0.09 0.04 -0.0133333 -0.09
          -0.04 0.0133333 -0.09 -0.0133333 0.0133333 -0.09 0.0133333 0.0133333 -0.09 0.04 0.0133333 -0.09
          -0.04 0.04 -0.09 -0.0133333 0.04 -0.09 0.0133333 0.04 -0.09 0.04 0.04 -0.09
          -0.04 -0.04 -0.06 -0.0133333 -0.04 -0.06 -0.04 -0.0133333 -0.06 -0.0133333 -0.0133333 -0.06
          0.0133333 -0.04 -0.06 0.0133333 -0.0133333 -0.06 0.04 -0.04 -0.06 0.04 -0.0133333 -0.06
          -0.04 0.0133333 -0.06 -0.0133333 0.0133333 -0.06 0.0133333 0.0133333 -0.06 0.04 0.0133333 -0.06
          -0.04 0.04 -0.06 -0.0133333 0.04 -0.06 0.0133333 0.04 -0.06 0.04 0.04 -0.06
          -0.04 -0.04 -0.03 -0.0133333 -0.04 -0.03 -0.04 -0.0133333 -0.03 -0.0133333 -0.0133333 -0.03
          0.0133333 -0.04 -0.03 0.0133333 -0.0133333 -0.03 0.04 -0.04 -0.03 0.04 -0.0133333 -0.03
          -0.04 0.0133333 -0.03 -0.0133333 0.0133333 -0.03 0.0133333 0.0133333 -0.03 0.04 0.0133333 -0.03
          -0.04 0.04 -0.03 -0.0133333 0.04 -0.03 0.0133333 0.04 -0.03 0.04 0.04 -0.03
          -0.04 -0.04 0 -0.0133333 -0.04 0 -0.04 -0.0133333 0 -0.0133333 -0.0133333 0
          0.0133333 -0.04 0 0.0133333 -0.0133333 0 0.04 -0.04 0 0.04 -0.0133333 0
          -0.04 0.0133333 0 -0.0133333 0.0133333 0 0.0133333 0.0133333 0 0.04 0.0133333 0
          -0.04 0.04 0 -0.0133333 0.04 0 0.0133333 0.04 0 0.04 0.04 0
        </DataArray>
      </Points>
      <Cells>
        <DataArray type="Int32" Name="connectivity" NumberOfComponents="1" format="ascii">
          0 1 3 2 4 5 7 6 1 8 9 3
          5 10 11 7 8 12 13 9 10 14 15 11
          2 3 17 16 6 7 19 18 3 9 20 17
          7 11 21 19 9 13 22 20 11 15 23 21
          16 17 25 24 18 19 27 26 17 20 28 25
          19 21 29 27 20 22 30 28 21 23 31 29
          4 5 7 6 32 33 35 34 5 10 11 7
          33 36 37 35 10 14 15 11 36 38 39 37
          6 7 19 18 34 35 41 40 7 11 21 19
          35 37 42 41 11 15 23 21 37 39 43 42
          18 19 27 26 40 41 45 44 19 21 29 27
          41 42 46 45 21 23 31 29 42 43 47 46
          32 33 35 34 48 49 51 50 33 36 37 35
          49 52 53 51 36 38 39 37 52 54 55 53
          34 35 41 40 50 51 57 56 35 37 42 41
          51 53 58 57 37 39 43 42 53 55 59 58
          40 41 45 44 56 57 61 60 41 42 46 45
          57 58 62 61 42 43 47 46 58 59 63 62
          48 49 51 50 64 65 67 66 49 52 53 51
          65 68 69 67 52 54 55 53 68 70 71 69
          50 51 57 56 66 67 73 72 51 53 58 57
          67 69 74 73 53 55 59 58 69 71 75 74
          56 57 61 60 72 73 77 76 57 58 62 61
          73 74 78 77 58 59 63 62 74 75 79 78
          64 65 67 66 80 81 83 82 65 68 69 67
          81 84 85 83 68 70 71 69 84 86 87 85
          66 67 73 72 82 83 89 88 67 69 74 73
          83 85 90 89 69 71 75 74 85 87 91 90
          72 73 77 76 88 89 93 92 73 74 78 77
          89 90 94 93 74 75 79 78 90 91 95 94
        </DataArray>
        <DataArray type="Int32" Name="offsets" NumberOfComponents="1" format="ascii">
          8 16 24 32 40 48 56 64 72 80 88 96
          104 112 120 128 136 144 152 160 168 176 184 192
          200 208 216 224 232 240 248 256 264 272 280 288
          296 304 312 320 328 336 344 352 360
        </DataArray>
        <DataArray type="UInt8" Name="types" NumberOfComponents="1" format="ascii">
          12 12 12 12 12 12 12 12 12 12 12 12
          12 12 12 12 12 12 12 12 12 12 12 12
          12 12 12 12 12 12 12 12 12 12 12 12
          12 12 12 12 12 12 12 12 12
        </DataArray>
      </Cells>
    </Piece>
  </UnstructuredGrid>
</VTKFile>
