<?xml version="1.0"?>
<VTKFile type="UnstructuredGrid" version="0.1" byte_order="LittleEndian">
  <UnstructuredGrid>
    <Piece NumberOfCells="1092" NumberOfPoints="1456">
      <CellData Scalars="p (Pa)">
        <DataArray type="Float32" Name="p (Pa)" NumberOfComponents="1" format="ascii">
          -351440 -353635 -355157 -356037 -356429 -356538 -356542 -351257 -353457 -354958 -355797 -356144
          -356215 -356199 -350765 -352969 -354430 -355199 -355471 -355483 -355433 -349756 -351948 -353357
          -354052 -354250 -354204 -354123 -348030 -350172 -351528 -352172 -352328 -352253 -352159 -345512
          -347554 -348858 -349490 -349656 -349597 -349512 -342331 -344235 -345483 -346128 -346342 -346333
          -346279 -338764 -340510 -341696 -342360 -342635 -342692 -342679 -335142 -336733 -337855 -338532
          -338865 -338987 -339013 -331798 -333251 -334313 -334997 -335376 -335550 -335610 -329020 -330365
          -331378 -332063 -332474 -332687 -332772 -327038 -328310 -329288 -329972 -330402 -330640 -330742
          -326008 -327242 -328203 -328886 -329325 -329575 -329685 -356207 -358551 -360079 -360854 -361093
          -361062 -360985 -356166 -358529 -360024 -360731 -360895 -360805 -360695 -355908 -358299 -359733
          -360323 -360362 -360174 -360011 -355116 -357522 -358882 -359347 -359261 -358977 -358765 -353449
          -355820 -357114 -357506 -357357 -357030 -356796 -350743 -352993 -354248 -354657 -354546 -354253
          -354036 -347191 -349260 -350478 -350952 -350945 -350743 -350578 -343168 -345035 -346202 -346744
          -346857 -346767 -346668 -339082 -340758 -341867 -342459 -342677 -342692 -342657 -335316 -336831
          -337884 -338509 -338806 -338906 -338922 -332197 -333589 -334597 -335240 -335593 -335753 -335807
          -329978 -331287 -332263 -332917 -333304 -333502 -333581 -328827 -330095 -331054 -331712 -332116
          -332333 -332423 -365983 -368644 -370161 -370677 -370559 -370210 -369949 -366316 -369032 -370479
          -370850 -370577 -370109 -369786 -366688 -369508 -370825 -370934 -370395 -369729 -369302 -366525
          -369464 -370618 -370436 -369621 -368755 -368227 -365089 -368063 -369097 -368758 -367811 -366854
          -366278 -361915 -364684 -365746 -365534 -364711 -363837 -363300 -357450 -359901 -361001 -361027
          -360471 -359798 -359366 -352355 -354481 -355572 -355806 -355526 -355087 -354785 -347206 -349053
          -350107 -350489 -350432 -350201 -350021 -342492 -344124 -345138 -345616 -345724 -345653 -345568
          -338614 -340092 -341074 -341615 -341835 -341875 -341859 -335870 -337250 -338211 -338790 -339079
          -339189 -339215 -334452 -335784 -336734 -337332 -337654 -337796 -337843 -381375 -384557 -385985
          -385983 -385196 -384271 -383687 -382527 -385853 -387111 -386771 -385647 -384477 -383766 -384370
          -388013 -388922 -387933 -386200 -384602 -383676 -385835 -389971 -390379 -388587 -386173 -384120
          -382972 -385183 -389716 -389717 -387449 -384690 -382413 -381151 -380913 -384872 -385256 -383519
          -381137 -379058 -377872 -374495 -377694 -378422 -377446 -375755 -374131 -373162 -367314 -369863
          -370721 -370311 -369255 -368133 -367433 -360186 -362270 -363155 -363108 -362528 -361829 -361373
          -353748 -355525 -356416 -356602 -356355 -355968 -355698 -348515 -350098 -350996 -351336 -351311
          -351134 -350992 -344850 -346318 -347224 -347659 -347770 -347722 -347657 -342969 -344383 -345294
          -345774 -345950 -345963 -345935 -403257 -407209 -408366 -407409 -405481 -403614 -402508 -406113
          -410410 -411122 -409379 -406729 -404361 -403007 -411268 -416483 -416152 -412754 -408707 -405424
          -403629 -416942 -424107 -421864 -416061 -410279 -405950 -403665 -418926 -428705 -424157 -416534
          -409731 -404811 -402239 -411633 -418703 -416720 -411251 -405583 -401103 -398655 -400945 -405615
          -405284 -402194 -398305 -394824 -392805 -389869 -392993 -393228 -391572 -389101 -386698 -385242
          -379227 -381515 -381949 -381093 -379588 -378050 -377095 -369800 -371668 -372235 -371874 -371011
          -370081 -369491 -362278 -363931 -364614 -364581 -364139 -363603 -363252 -357096 -358638 -359405
          -359576 -359390 -359089 -358878 -354466 -355958 -356768 -357039 -356974 -356782 -356636 -432624
          -437615 -438141 -435575 -431860 -428568 -426691 -438829 -444545 -443935 -439638 -434454 -430199
          -427859 -451188 -459397 -455618 -447233 -438991 -432873 -429667 -467774 -483893 -472013 -456350
          -443781 -435312 -431061 -478897 -514461 -484849 -461380 -445646 -435584 -430592 -461607 -478249
          -467794 -453389 -441033 -431811 -426911 -441328 -448925 -445838 -438697 -430875 -423676 -419524
          -423308 -426813 -425522 -421685 -416825 -412001 -409073 -406443 -408496 -407818 -405537 -402496
          -399482 -397625 -391787 -393438 -393238 -391905 -390034 -388204 -387076 -380415 -381974 -382170
          -381486 -380375 -379271 -378590 -372785 -374321 -374785 -374512 -373861 -373173 -372742 -368982
          -370508 -371103 -371029 -370593 -370095 -369776 -470148 -476342 -475706 -470747 -464511 -459264
          -456343 -482389 -489676 -486434 -478074 -469143 -462195 -458471 -509365 -521908 -510083 -492795
          -477815 -467373 -462071 -552875 -594558 -550268 -513327 -488513 -473138 -465721 -593586 -832376
          -599298 -530217 -496128 -476525 -467230 -542128 -588400 -550250 -517672 -492716 -473925 -464148
          -502521 -514839 -506019 -493141 -479531 -463876 -454968 -474023 -475640 -470911 -463971 -455594
          -445864 -439903 -445738 -445667 -442388 -437801 -432399 -426762 -423257 -421480 -421924 -420029
          -417066 -413636 -410357 -408352 -403516 -404536 -403739 -401985 -399861 -397906 -396730 -391978
          -393313 -393202 -392226 -390892 -389652 -388911 -386384 -387844 -388049 -387444 -386479 -385556
          -385001 -515344 -522609 -520351 -512419 -503097 -495461 -491264 -537148 -544516 -537494 -524002
          -510373 -500049 -494595 -590731 -599534 -577183 -548629 -524781 -508608 -500539 -691767 -723294
          -650325 -587343 -544942 -519433 -507431 -748674 -1.04555e+06 -749176 -629643 -565018 -528873 -512375
          -651819 -714100 -664720 -618126 -570962 -531109 -511409 -592935 -603851 -591450 -579274 -563640
          -521580 -500756 -557089 -545061 -533150 -523810 -511697 -490632 -478187 -504821 -496191 -487045
          -479103 -470404 -460035 -453594 -461410 -458066 -452698 -447168 -441489 -435988 -432632 -431984
          -431521 -428899 -425513 -421971 -418829 -416968 -414372 -415156 -414083 -412090 -409837 -407874
          -406729 -406183 -407409 -407002 -405663 -404006 -402544 -401693 -565454 -573861 -570098 -559233
          -546707 -536504 -530910 -599862 -605206 -594004 -575304 -556758 -542800 -535453 -701493 -686766
          -651826 -611225 -577575 -555001 -543826 -1.02567e+06 -866069 -772353 -676447 -610224 -571904 -554307
          -1.0329e+06 -1.06283e+06 -1.0371e+06 -792056 -654135 -590527 -563632 -798847 -844324 -827454 -807013 -694626
          -604409 -566466 -729313 -720844 -712369 -736457 -782497 -605947 -555527 -714344 -643598 -615139
          -607969 -595136 -546242 -521554 -597429 -562568 -541100 -528566 -515499 -497234 -486348 -513709
          -501322 -489693 -480451 -471784 -463265 -458150 -465132 -461683 -456177 -450576 -445251 -440662
          -437987 -438846 -438624 -436183 -432899 -429553 -426759 -425160 -427261 -428074 -426858 -424631
          -422178 -420116 -418942 -614534 -625852 -622201 -609517 -594269 -581590 -574577 -653632 -662405
          -650198 -628545 -606262 -589078 -579930 -761462 -754355 -715353 -670261 -631098 -603668 -589835
          -1.02684e+06 -935912 -833149 -741023 -670036 -624174 -602336 -1.02591e+06 -1.06609e+06 -979555 -842090 -724617
          -648078 -613765 -917435 -959187 -938741 -926473 -803756 -671067 -617982 -903738 -856689 -852220
          -1.01001e+06 -1.02089e+06 -681595 -604806 -991180 -765151 -704811 -703288 -672848 -595364 -560401 -726441
          -637359 -596238 -577090 -556589 -530725 -516176 -573351 -546155 -525989 -512128 -499873 -488502
          -481906 -499104 -491507 -482527 -474453 -467254 -461310 -457927 -462872 -461402 -457467 -452857
          -448438 -444874 -442873 -447698 -448039 -446000 -442906 -439702 -437090 -435627 -661483 -677538
          -676331 -663397 -645762 -630430 -621823 -701296 -716786 -706918 -684160 -658624 -638231 -627241
          -807202 -814894 -777490 -729447 -684996 -653142 -636968 -1.05353e+06 -1.00308e+06 -900125 -804797 -724930
          -672991 -648289 -1.07456e+06 -1.07084e+06 -1.03053e+06 -913140 -776374 -693061 -656308 -1.04505e+06 -1.07217e+06 -1.05351e+06
          -1.06169e+06 -832196 -704238 -653612 -1.06621e+06 -973193 -937264 -1.03711e+06 -829568 -684719 -630521 -1.05349e+06
          -840351 -759497 -737223 -674830 -613834 -584171 -806482 -688992 -634132 -605958 -577700 -551907
          -537807 -616388 -579707 -553482 -535547 -520402 -507994 -501073 -525550 -515277 -503903 -493965
          -485415 -478732 -475033 -482658 -480442 -475530 -470006 -464856 -460818 -458588 -465057 -465164
          -462619 -458960 -455259 -452297 -450654 -706603 -729574 -734351 -723644 -702948 -683686 -672758
          -743211 -769349 -766380 -744778 -715342 -690709 -677329 -830518 -870433 -842720 -792088 -740680
          -703611 -684898 -985312 -1.06998e+06 -980309 -869300 -776068 -718373 -691582 -1.07007e+06 -1.07313e+06 -1.07528e+06
          -955704 -808706 -726583 -691045 -1.07561e+06 -1.13981e+06 -1.07758e+06 -1.0348e+06 -820599 -717996 -676597 -1.08886e+06
          -1.01122e+06 -929768 -878562 -760173 -679465 -643600 -1.02311e+06 -854099 -765724 -716842 -662108 -618860
          -597041 -808918 -703194 -647365 -613836 -585553 -563484 -551695 -627809 -594079 -567840 -548635
          -533108 -521360 -515003 -538380 -529001 -517718 -507441 -498676 -492052 -488458 -495311 -493478
          -488662 -483043 -477784 -473706 -471475 -477444 -477807 -475355 -471669 -467903 -464892 -463228
        </DataArray>
        <DataArray type="Float32" Name="saturation" NumberOfComponents="1" format="ascii">
          0.760725 0.760481 0.760313 0.760216 0.760172 0.76016 0.76016 0.760746 0.760501 0.760335 0.760242 0.760204
          0.760196 0.760198 0.760801 0.760555 0.760393 0.760308 0.760278 0.760277 0.760282 0.760913 0.760669 0.760512
          0.760435 0.760413 0.760418 0.760427 0.761107 0.760867 0.760716 0.760644 0.760626 0.760635 0.760645 0.761391
          0.761161 0.761014 0.760943 0.760925 0.760931 0.760941 0.761752 0.761536 0.761394 0.761321 0.761297 0.761298
          0.761304 0.76216 0.76196 0.761824 0.761749 0.761717 0.761711 0.761712 0.762579 0.762394 0.762265 0.762187
          0.762149 0.762135 0.762132 0.762968 0.762799 0.762675 0.762596 0.762552 0.762531 0.762524 0.763294 0.763136
          0.763017 0.762937 0.762889 0.762864 0.762854 0.763528 0.763378 0.763263 0.763182 0.763132 0.763104 0.763092
          0.76365 0.763504 0.763391 0.76331 0.763258 0.763229 0.763216 0.760197 0.759939 0.759772 0.759688 0.759661
          0.759665 0.759673 0.760201 0.759942 0.759778 0.759701 0.759683 0.759693 0.759705 0.76023 0.759967 0.75981
          0.759746 0.759741 0.759762 0.75978 0.760317 0.760052 0.759903 0.759852 0.759862 0.759893 0.759916 0.760502
          0.76024 0.760097 0.760054 0.76007 0.760106 0.760132 0.760803 0.760553 0.760413 0.760368 0.76038 0.760413
          0.760437 0.761201 0.760969 0.760833 0.76078 0.760781 0.760803 0.760822 0.761657 0.761445 0.761313 0.761252
          0.761239 0.761249 0.76126 0.762124 0.761932 0.761805 0.761737 0.761713 0.761711 0.761715 0.762558 0.762383
          0.762262 0.76219 0.762156 0.762144 0.762142 0.762922 0.762759 0.762642 0.762567 0.762526 0.762508 0.762502
          0.763182 0.763028 0.762914 0.762838 0.762792 0.762769 0.76276 0.763317 0.763168 0.763055 0.762978 0.762931
          0.762906 0.762895 0.759132 0.758846 0.758684 0.758629 0.758641 0.758679 0.758707 0.759096 0.758805 0.75865
          0.75861 0.75864 0.758689 0.758724 0.759056 0.758754 0.758613 0.758601 0.758659 0.75873 0.758776 0.759073
          0.758758 0.758635 0.758655 0.758742 0.758834 0.758891 0.759228 0.758908 0.758798 0.758834 0.758935 0.759038
          0.7591 0.759572 0.759272 0.759157 0.75918 0.759269 0.759364 0.759422 0.76006 0.759792 0.759672 0.759669
          0.759729 0.759803 0.75985 0.760623 0.760388 0.760267 0.760241 0.760272 0.760321 0.760354 0.7612 0.760992
          0.760874 0.760832 0.760838 0.760864 0.760884 0.761734 0.761548 0.761433 0.761379 0.761367 0.761375 0.761385
          0.762178 0.762008 0.761896 0.761834 0.761809 0.761804 0.761806 0.762494 0.762335 0.762224 0.762157 0.762124
          0.762112 0.762109 0.762659 0.762504 0.762394 0.762325 0.762288 0.762272 0.762266 0.757503 0.757173 0.757026
          0.757026 0.757107 0.757203 0.757263 0.757383 0.757039 0.75691 0.756945 0.757061 0.757181 0.757255 0.757192
          0.756818 0.756725 0.756826 0.757004 0.757168 0.757264 0.757041 0.756617 0.756576 0.756759 0.757006 0.757218
          0.757337 0.757108 0.756643 0.756643 0.756875 0.757159 0.757395 0.757526 0.757551 0.757141 0.757101 0.75728
          0.757527 0.757744 0.757868 0.758224 0.757887 0.757811 0.757913 0.758091 0.758262 0.758365 0.758989 0.758716
          0.758624 0.758668 0.758781 0.758901 0.758976 0.75976 0.759533 0.759437 0.759443 0.759505 0.759581 0.759631
          0.760469 0.760272 0.760174 0.760153 0.760181 0.760223 0.760253 0.761053 0.760875 0.760775 0.760737 0.76074
          0.760759 0.760775 0.761466 0.7613 0.761198 0.761149 0.761136 0.761142 0.761149 0.761679 0.761519 0.761416
          0.761361 0.761341 0.76134 0.761343 0.755282 0.754892 0.754778 0.754872 0.755062 0.755246 0.755356 0.754999
          0.754578 0.754509 0.754679 0.754939 0.755172 0.755306 0.754494 0.753989 0.754021 0.75435 0.754745 0.755067
          0.755245 0.753945 0.75326 0.753474 0.75403 0.754591 0.755015 0.755241 0.753754 0.752827 0.753256 0.753984
          0.754644 0.755128 0.755383 0.754459 0.753776 0.753966 0.754496 0.755052 0.755495 0.75574 0.755511 0.755049
          0.755081 0.755387 0.755775 0.756125 0.756329 0.756628 0.75631 0.756286 0.756454 0.756706 0.756953 0.757102
          0.757727 0.757488 0.757443 0.757532 0.757689 0.75785 0.75795 0.758722 0.758523 0.758463 0.758502 0.758593
          0.758692 0.758755 0.759533 0.759353 0.759279 0.759283 0.759331 0.759389 0.759427 0.760099 0.75993 0.759846
          0.759827 0.759847 0.75988 0.759903 0.760389 0.760224 0.760135 0.760105 0.760112 0.760134 0.76015 0.75246
          0.751997 0.751949 0.752186 0.752531 0.752839 0.753016 0.751885 0.751362 0.751418 0.751811 0.75229 0.752686
          0.752906 0.750762 0.750031 0.750366 0.751118 0.75187 0.752437 0.752736 0.749297 0.747916 0.74893 0.750301
          0.751432 0.75221 0.752606 0.74834 0.745409 0.747836 0.749856 0.751262 0.752185 0.75265 0.749836 0.748395
          0.749295 0.750565 0.751683 0.752536 0.752995 0.751656 0.750966 0.751245 0.751897 0.752623 0.753301 0.753697
          0.753336 0.753005 0.753127 0.753491 0.753956 0.754423 0.754709 0.754967 0.754765 0.754832 0.755056 0.755357
          0.755657 0.755843 0.756432 0.756265 0.756285 0.75642 0.756611 0.756798 0.756914 0.757603 0.757441 0.75742
          0.757491 0.757607 0.757722 0.757793 0.758405 0.758242 0.758193 0.758222 0.758291 0.758364 0.758409 0.75881
          0.758647 0.758583 0.758591 0.758638 0.758691 0.758725 0.749091 0.748558 0.748612 0.749039 0.749581 0.750042
          0.750301 0.748043 0.747431 0.747703 0.74841 0.749178 0.749784 0.750113 0.745818 0.744819 0.74576 0.747172
          0.748432 0.749331 0.749795 0.742444 0.739435 0.74264 0.7455 0.747528 0.748833 0.749475 0.739503 0.725342
          0.739105 0.744169 0.746896 0.748542 0.749344 0.743254 0.739867 0.742641 0.745154 0.747178 0.748765 0.749613
          0.746372 0.745379 0.746088 0.747143 0.748286 0.749637 0.750424 0.748757 0.748618 0.749025 0.749628 0.750368
          0.751242 0.751787 0.751254 0.75126 0.751559 0.75198 0.752481 0.753009 0.753341 0.75351 0.753468 0.753649
          0.753933 0.754264 0.754583 0.754779 0.755256 0.755155 0.755234 0.755408 0.755619 0.755815 0.755933 0.756413
          0.756278 0.756289 0.756388 0.756524 0.75665 0.756726 0.756985 0.756835 0.756814 0.756876 0.756975 0.75707
          0.757127 0.745339 0.744764 0.744942 0.745573 0.746325 0.746951 0.747299 0.743635 0.743073 0.743608 0.744654
          0.745737 0.746574 0.747023 0.739703 0.739089 0.740665 0.742763 0.744593 0.745879 0.746534 0.733119 0.731251
          0.735702 0.739941 0.743041 0.745014 0.745974 0.729803 0.715712 0.729775 0.73705 0.741547 0.744274 0.745576
          0.735606 0.731788 0.734788 0.737819 0.741113 0.7441 0.745654 0.739548 0.738791 0.739652 0.740515 0.741647
          0.744845 0.746516 0.742131 0.743032 0.743942 0.744669 0.74563 0.747352 0.7484 0.746185 0.746891 0.747651
          0.748322 0.749069 0.749974 0.750546 0.749853 0.750149 0.750627 0.751124 0.751641 0.752147 0.752459 0.752519
          0.752563 0.752808 0.753127 0.753464 0.753764 0.753943 0.754193 0.754117 0.754221 0.754414 0.754634 0.754826
          0.754939 0.754993 0.754872 0.754912 0.755044 0.755207 0.755352 0.755437 0.741515 0.740904 0.741176 0.741972
          0.742907 0.743684 0.744116 0.739066 0.738697 0.739473 0.7408 0.742155 0.743203 0.743765 0.732534 0.733423
          0.735606 0.738286 0.740637 0.742286 0.743125 0.716524 0.723669 0.728494 0.734057 0.738354 0.741045 0.742338
          0.716226 0.715019 0.716055 0.727434 0.735458 0.739717 0.741648 0.727075 0.724741 0.725592 0.726646 0.732947
          0.738752 0.741441 0.730903 0.731393 0.73189 0.730494 0.727945 0.738647 0.742247 0.731773 0.736136 0.73802
          0.738508 0.739394 0.742943 0.744847 0.739235 0.741726 0.743333 0.744298 0.745327 0.746805 0.74771 0.745469
          0.74647 0.74743 0.748208 0.748949 0.74969 0.750141 0.749527 0.749829 0.750316 0.750817 0.751298 0.751717
          0.751963 0.751884 0.751904 0.752129 0.752434 0.752747 0.75301 0.753161 0.752962 0.752886 0.753 0.753211
          0.753444 0.753641 0.753753 0.738061 0.737302 0.737545 0.738402 0.739455 0.74035 0.740852 0.73549 0.734934
          0.73571 0.737123 0.738625 0.739819 0.740468 0.729091 0.729485 0.731714 0.734441 0.736954 0.738803 0.739766
          0.716475 0.720394 0.725303 0.730235 0.734455 0.737413 0.738895 0.716513 0.714889 0.718468 0.724853 0.731174
          0.735847 0.738113 0.721236 0.719356 0.720267 0.720822 0.726817 0.73439 0.737828 0.721872 0.724128 0.724349
          0.717174 0.716721 0.733739 0.738725 0.717969 0.728888 0.732337 0.732427 0.73428 0.739379 0.741886 0.731069
          0.736542 0.739318 0.740671 0.742168 0.74413 0.745273 0.740941 0.742949 0.744499 0.745596 0.746588 0.747529
          0.748084 0.746651 0.747279 0.748032 0.74872 0.749342 0.749862 0.750161 0.749725 0.749854 0.750202 0.750612
          0.75101 0.751332 0.751515 0.751076 0.751046 0.75123 0.751512 0.751805 0.752046 0.752181 0.734992 0.733989
          0.734064 0.734871 0.735996 0.736998 0.737571 0.732546 0.73163 0.732212 0.733582 0.735173 0.736485 0.737209
          0.726636 0.726237 0.728215 0.730896 0.733531 0.735522 0.736568 0.71539 0.717465 0.722041 0.726762 0.731156
          0.734271 0.735833 0.714555 0.714701 0.716324 0.721435 0.728276 0.733041 0.73532 0.715732 0.714649 0.715391
          0.715064 0.725351 0.732371 0.735492 0.714885 0.718744 0.720333 0.716054 0.725485 0.733548 0.736992 0.715392
          0.72494 0.7292 0.73045 0.734157 0.738109 0.740166 0.726674 0.733288 0.736754 0.738646 0.740628 0.742517
          0.743584 0.737936 0.740484 0.742399 0.743758 0.744938 0.745928 0.74649 0.744533 0.745344 0.74626 0.747075
          0.747788 0.748354 0.74867 0.748021 0.748208 0.748627 0.749103 0.749551 0.749905 0.750102 0.749533 0.749524
          0.749747 0.750069 0.750398 0.750662 0.75081 0.73223 0.730888 0.730614 0.731231 0.732448 0.733611 0.734285
          0.730111 0.728658 0.728821 0.730022 0.731715 0.733183 0.734002 0.725437 0.723457 0.724822 0.727432 0.730254
          0.732408 0.733537 0.718221 0.714735 0.718436 0.723512 0.728292 0.731537 0.73313 0.714732 0.714611 0.714526
          0.71951 0.726558 0.731061 0.733163 0.714513 0.712062 0.714436 0.716149 0.725943 0.73156 0.734047 0.713996
          0.717123 0.720672 0.723064 0.729162 0.73387 0.736136 0.716629 0.724256 0.728857 0.731627 0.734952 0.737769
          0.739262 0.726547 0.732433 0.735893 0.738109 0.740068 0.741659 0.742533 0.737172 0.739468 0.74134 0.742762
          0.743946 0.744862 0.745366 0.74354 0.744264 0.74515 0.745973 0.746687 0.747234 0.747533 0.746964 0.747115
          0.747516 0.747988 0.748435 0.748784 0.748976 0.748464 0.748433 0.748642 0.748959 0.749285 0.749548 0.749694
        </DataArray>
        <DataArray type="Float32" Name="process rank" NumberOfComponents="1" format="ascii">
          1 1 1 1 1 1 1 1 1 1 1 1
          1 1 1 1 1 1 1 1 1 1 1 1
          1 1 1 1 1 1 1 1 1 1 1 1
          1 1 1 1 1 1 1 1 1 1 1 1
          1 1 1 1 1 1 1 1 1 1 1 1
          1 1 1 1 1 1 1 1 1 1 1 1
          1 1 1 1 1 1 1 1 1 1 1 1
          1 1 1 1 1 1 1 1 1 1 1 1
          1 1 1 1 1 1 1 1 1 1 1 1
          1 1 1 1 1 1 1 1 1 1 1 1
          1 1 1 1 1 1 1 1 1 1 1 1
          1 1 1 1 1 1 1 1 1 1 1 1
          1 1 1 1 1 1 1 1 1 1 1 1
          1 1 1 1 1 1 1 1 1 1 1 1
          1 1 1 1 1 1 1 1 1 1 1 1
          1 1 1 1 1 1 1 1 1 1 1 1
          1 1 1 1 1 1 1 1 1 1 1 1
          1 1 1 1 1 1 1 1 1 1 1 1
          1 1 1 1 1 1 1 1 1 1 1 1
          1 1 1 1 1 1 1 1 1 1 1 1
          1 1 1 1 1 1 1 1 1 1 1 1
          1 1 1 1 1 1 1 1 1 1 1 1
          1 1 1 1 1 1 1 1 1 1 1 1
          1 1 1 1 1 1 1 1 1 1 1 1
          1 1 1 1 1 1 1 1 1 1 1 1
          1 1 1 1 1 1 1 1 1 1 1 1
          1 1 1 1 1 1 1 1 1 1 1 1
          1 1 1 1 1 1 1 1 1 1 1 1
          1 1 1 1 1 1 1 1 1 1 1 1
          1 1 1 1 1 1 1 1 1 1 1 1
          1 1 1 1 1 1 1 1 1 1 1 1
          1 1 1 1 1 1 1 1 1 1 1 1
          1 1 1 1 1 1 1 1 1 1 1 1
          1 1 1 1 1 1 1 1 1 1 1 1
          1 1 1 1 1 1 1 1 1 1 1 1
          1 1 1 1 1 1 1 1 1 1 1 1
          1 1 1 1 1 1 1 1 1 1 1 1
          1 1 1 1 1 1 1 1 1 1 1 1
          1 1 1 1 1 1 1 1 1 1 1 1
          1 1 1 1 1 1 1 1 1 1 1 1
          1 1 1 1 1 1 1 1 1 1 1 1
          1 1 1 1 1 1 1 1 1 1 1 1
          1 1 1 1 1 1 1 1 1 1 1 1
          1 1 1 1 1 1 1 1 1 1 1 1
          1 1 1 1 1 1 1 1 1 1 1 1
          1 1 1 1 1 1 1 1 1 1 1 1
          1 1 1 1 1 1 1 1 1 1 1 1
          1 1 1 1 1 1 1 1 1 1 1 1
          1 1 1 1 1 1 1 1 1 1 1 1
          1 1 1 1 1 1 1 1 1 1 1 1
          1 1 1 1 1 1 1 1 1 1 1 1
          1 1 1 1 1 1 1 1 1 1 1 1
          1 1 1 1 1 1 1 1 1 1 1 1
          1 1 1 1 1 1 1 1 1 1 1 1
          1 1 1 1 1 1 1 1 1 1 1 1
          1 1 1 1 1 1 1 1 1 1 1 1
          1 1 1 1 1 1 1 1 1 1 1 1
          1 1 1 1 1 1 1 1 1 1 1 1
          1 1 1 1 1 1 1 1 1 1 1 1
          1 1 1 1 1 1 1 1 1 1 1 1
          1 1 1 1 1 1 1 1 1 1 1 1
          1 1 1 1 1 1 1 1 1 1 1 1
          1 1 1 1 1 1 1 1 1 1 1 1
          1 1 1 1 1 1 1 1 1 1 1 1
          1 1 1 1 1 1 1 1 1 1 1 1
          1 1 1 1 1 1 1 1 1 1 1 1
          1 1 1 1 1 1 1 1 1 1 1 1
          1 1 1 1 1 1 1 1 1 1 1 1
          1 1 1 1 1 1 1 1 1 1 1 1
          1 1 1 1 1 1 1 1 1 1 1 1
          1 1 1 1 1 1 1 1 1 1 1 1
          1 1 1 1 1 1 1 1 1 1 1 1
          1 1 1 1 1 1 1 1 1 1 1 1
          1 1 1 1 1 1 1 1 1 1 1 1
          1 1 1 1 1 1 1 1 1 1 1 1
          1 1 1 1 1 1 1 1 1 1 1 1
          1 1 1 1 1 1 1 1 1 1 1 1
          1 1 1 1 1 1 1 1 1 1 1 1
          1 1 1 1 1 1 1 1 1 1 1 1
          1 1 1 1 1 1 1 1 1 1 1 1
          1 1 1 1 1 1 1 1 1 1 1 1
          1 1 1 1 1 1 1 1 1 1 1 1
          1 1 1 1 1 1 1 1 1 1 1 1
          1 1 1 1 1 1 1 1 1 1 1 1
          1 1 1 1 1 1 1 1 1 1 1 1
          1 1 1 1 1 1 1 1 1 1 1 1
          1 1 1 1 1 1 1 1 1 1 1 1
          1 1 1 1 1 1 1 1 1 1 1 1
          1 1 1 1 1 1 1 1 1 1 1 1
          1 1 1 1 1 1 1 1 1 1 1 1
          1 1 1 1 1 1 1 1 1 1 1 1
        </DataArray>
      </CellData>
      <Points>
        <DataArray type="Float32" Name="Coordinates" NumberOfComponents="3" format="ascii">
          -0.00307692 -0.04 -0.15 0.00307692 -0.04 -0.15 -0.00307692 -0.0338462 -0.15 0.00307692 -0.0338462 -0.15
          -0.00307692 -0.04 -0.144 0.00307692 -0.04 -0.144 -0.00307692 -0.0338462 -0.144 0.00307692 -0.0338462 -0.144
          0.00923077 -0.04 -0.15 0.00923077 -0.0338462 -0.15 0.00923077 -0.04 -0.144 0.00923077 -0.0338462 -0.144
          0.0153846 -0.04 -0.15 0.0153846 -0.0338462 -0.15 0.0153846 -0.04 -0.144 0.0153846 -0.0338462 -0.144
          0.0215385 -0.04 -0.15 0.0215385 -0.0338462 -0.15 0.0215385 -0.04 -0.144 0.0215385 -0.0338462 -0.144
          0.0276923 -0.04 -0.15 0.0276923 -0.0338462 -0.15 0.0276923 -0.04 -0.144 0.0276923 -0.0338462 -0.144
          0.0338462 -0.04 -0.15 0.0338462 -0.0338462 -0.15 0.0338462 -0.04 -0.144 0.0338462 -0.0338462 -0.144
          0.04 -0.04 -0.15 0.04 -0.0338462 -0.15 0.04 -0.04 -0.144 0.04 -0.0338462 -0.144
          -0.00307692 -0.0276923 -0.15 0.00307692 -0.0276923 -0.15 -0.00307692 -0.0276923 -0.144 0.00307692 -0.0276923 -0.144
          0.00923077 -0.0276923 -0.15 0.00923077 -0.0276923 -0.144 0.0153846 -0.0276923 -0.15 0.0153846 -0.0276923 -0.144
          0.0215385 -0.0276923 -0.15 0.0215385 -0.0276923 -0.144 0.0276923 -0.0276923 -0.15 0.0276923 -0.0276923 -0.144
          0.0338462 -0.0276923 -0.15 0.0338462 -0.0276923 -0.144 0.04 -0.0276923 -0.15 0.04 -0.0276923 -0.144
          -0.00307692 -0.0215385 -0.15 0.00307692 -0.0215385 -0.15 -0.00307692 -0.0215385 -0.144 0.00307692 -0.0215385 -0.144
          0.00923077 -0.0215385 -0.15 0.00923077 -0.0215385 -0.144 0.0153846 -0.0215385 -0.15 0.0153846 -0.0215385 -0.144
          0.0215385 -0.0215385 -0.15 0.0215385 -0.0215385 -0.144 0.0276923 -0.0215385 -0.15 0.0276923 -0.0215385 -0.144
          0.0338462 -0.0215385 -0.15 0.0338462 -0.0215385 -0.144 0.04 -0.0215385 -0.15 0.04 -0.0215385 -0.144
          -0.00307692 -0.0153846 -0.15 0.00307692 -0.0153846 -0.15 -0.00307692 -0.0153846 -0.144 0.00307692 -0.0153846 -0.144
          0.00923077 -0.0153846 -0.15 0.00923077 -0.0153846 -0.144 0.0153846 -0.0153846 -0.15 0.0153846 -0.0153846 -0.144
          0.0215385 -0.0153846 -0.15 0.0215385 -0.0153846 -0.144 0.0276923 -0.0153846 -0.15 0.0276923 -0.0153846 -0.144
          0.0338462 -0.0153846 -0.15 0.0338462 -0.0153846 -0.144 0.04 -0.0153846 -0.15 0.04 -0.0153846 -0.144
          -0.00307692 -0.00923077 -0.15 0.00307692 -0.00923077 -0.15 -0.00307692 -0.00923077 -0.144 0.00307692 -0.00923077 -0.144
          0.00923077 -0.00923077 -0.15 0.00923077 -0.00923077 -0.144 0.0153846 -0.00923077 -0.15 0.0153846 -0.00923077 -0.144
          0.0215385 -0.00923077 -0.15 0.0215385 -0.00923077 -0.144 0.0276923 -0.00923077 -0.15 0.0276923 -0.00923077 -0.144
          0.0338462 -0.00923077 -0.15 0.0338462 -0.00923077 -0.144 0.04 -0.00923077 -0.15 0.04 -0.00923077 -0.144
          -0.00307692 -0.00307692 -0.15 0.00307692 -0.00307692 -0.15 -0.00307692 -0.00307692 -0.144 0.00307692 -0.00307692 -0.144
          0.00923077 -0.00307692 -0.15 0.00923077 -0.00307692 -0.144 0.0153846 -0.00307692 -0.15 0.0153846 -0.00307692 -0.144
          0.0215385 -0.00307692 -0.15 0.0215385 -0.00307692 -0.144 0.0276923 -0.00307692 -0.15 0.0276923 -0.00307692 -0.144
          0.0338462 -0.00307692 -0.15 0.0338462 -0.00307692 -0.144 0.04 -0.00307692 -0.15 0.04 -0.00307692 -0.144
          -0.00307692 0.00307692 -0.15 0.00307692 0.00307692 -0.15 -0.00307692 0.00307692 -0.144 0.00307692 0.00307692 -0.144
          0.00923077 0.00307692 -0.15 0.00923077 0.00307692 -0.144 0.0153846 0.00307692 -0.15 0.0153846 0.00307692 -0.144
          0.0215385 0.00307692 -0.15 0.0215385 0.00307692 -0.144 0.0276923 0.00307692 -0.15 0.0276923 0.00307692 -0.144
          0.0338462 0.00307692 -0.15 0.0338462 0.00307692 -0.144 0.04 0.00307692 -0.15 0.04 0.00307692 -0.144
          -0.00307692 0.00923077 -0.15 0.00307692 0.00923077 -0.15 -0.00307692 0.00923077 -0.144 0.00307692 0.00923077 -0.144
          0.00923077 0.00923077 -0.15 0.00923077 0.00923077 -0.144 0.0153846 0.00923077 -0.15 0.0153846 0.00923077 -0.144
          0.0215385 0.00923077 -0.15 0.0215385 0.00923077 -0.144 0.0276923 0.00923077 -0.15 0.0276923 0.00923077 -0.144
          0.0338462 0.00923077 -0.15 0.0338462 0.00923077 -0.144 0.04 0.00923077 -0.15 0.04 0.00923077 -0.144
          -0.00307692 0.0153846 -0.15 0.00307692 0.0153846 -0.15 -0.00307692 0.0153846 -0.144 0.00307692 0.0153846 -0.144
          0.00923077 0.0153846 -0.15 0.00923077 0.0153846 -0.144 0.0153846 0.0153846 -0.15 0.0153846 0.0153846 -0.144
          0.0215385 0.0153846 -0.15 0.0215385 0.0153846 -0.144 0.0276923 0.0153846 -0.15 0.0276923 0.0153846 -0.144
          0.0338462 0.0153846 -0.15 0.0338462 0.0153846 -0.144 0.04 0.0153846 -0.15 0.04 0.0153846 -0.144
          -0.00307692 0.0215385 -0.15 0.00307692 0.0215385 -0.15 -0.00307692 0.0215385 -0.144 0.00307692 0.0215385 -0.144
          0.00923077 0.0215385 -0.15 0.00923077 0.0215385 -0.144 0.0153846 0.0215385 -0.15 0.0153846 0.0215385 -0.144
          0.0215385 0.0215385 -0.15 0.0215385 0.0215385 -0.144 0.0276923 0.0215385 -0.15 0.0276923 0.0215385 -0.144
          0.0338462 0.0215385 -0.15 0.0338462 0.0215385 -0.144 0.04 0.0215385 -0.15 0.04 0.0215385 -0.144
          -0.00307692 0.0276923 -0.15 0.00307692 0.0276923 -0.15 -0.00307692 0.0276923 -0.144 0.00307692 0.0276923 -0.144
          0.00923077 0.0276923 -0.15 0.00923077 0.0276923 -0.144 0.0153846 0.0276923 -0.15 0.0153846 0.0276923 -0.144
          0.0215385 0.0276923 -0.15 0.0215385 0.0276923 -0.144 0.0276923 0.0276923 -0.15 0.0276923 0.0276923 -0.144
          0.0338462 0.0276923 -0.15 0.0338462 0.0276923 -0.144 0.04 0.0276923 -0.15 0.04 0.0276923 -0.144
          -0.00307692 0.0338462 -0.15 0.00307692 0.0338462 -0.15 -0.00307692 0.0338462 -0.144 0.00307692 0.0338462 -0.144