<?xml version="1.0"?>
<VTKFile type="UnstructuredGrid" version="0.1" byte_order="LittleEndian">
  <UnstructuredGrid>
    <Piece NumberOfCells="1014" NumberOfPoints="1372">
      <CellData Scalars="p (Pa)">
        <DataArray type="Float32" Name="p (Pa)" NumberOfComponents="1" format="ascii">
          -554347 -566971 -591823 -626909 -667622 -710813 -556131 -570843 -600553 -643090 -689179 -738292
          -557951 -576554 -616590 -677853 -732793 -794930 -556344 -578582 -630906 -725326 -784659 -869917
          -547904 -568522 -614466 -690970 -779919 -909479 -534392 -552361 -591569 -657831 -757816 -917249
          -518094 -533825 -568485 -629839 -734444 -912481 -500529 -514135 -544582 -600925 -707412 -935189
          -482873 -493944 -518416 -562337 -637938 -751960 -466534 -474870 -492534 -521427 -562709 -606905
          -453026 -459081 -471316 -489591 -512140 -532390 -443498 -448036 -456870 -469231 -483214 -495113
          -438600 -442405 -449661 -459483 -470187 -479279 -575899 -590253 -618670 -658671 -703322 -750104
          -578069 -595402 -631306 -683669 -733033 -782538 -580348 -603740 -658613 -755405 -803846 -854972
          -578247 -607999 -694263 -981653 -916400 -961440 -566656 -591372 -650725 -762187 -848894 -978499
          -549247 -568460 -610654 -681063 -775133 -917426 -529458 -544766 -577635 -632377 -715122 -838774
          -509274 -521619 -548024 -592275 -660604 -756105 -490002 -499673 -520026 -553006 -600126 -653975
          -472881 -480132 -494928 -517461 -546296 -574137 -459086 -464436 -474995 -490136 -507885 -523629
          -449487 -453588 -461471 -472296 -484340 -494801 -444582 -448078 -454702 -463600 -473284 -481731
          -591822 -607052 -637343 -680482 -729894 -781991 -593705 -611965 -649907 -706178 -764234 -819078
          -595235 -619446 -675774 -775332 -855873 -911743 -591711 -621644 -704562 -941892 -1.05627e+06 -1.07467e+06
          -578196 -603160 -662699 -775339 -901878 -1.06877e+06 -558410 -577311 -618507 -686608 -777856 -898742
          -536300 -550612 -580648 -628324 -693829 -774738 -514332 -525270 -547825 -582873 -630021 -683358
          -494027 -502308 -519077 -544313 -576413 -608921 -476520 -482687 -494896 -512529 -533576 -553208
          -462708 -467318 -476240 -488651 -502755 -515425 -453214 -456822 -463687 -472985 -483256 -492439
          -448392 -451517 -457408 -465281 -473881 -481618 -601337 -616465 -646605 -690143 -742464 -799820
          -602336 -619814 -655609 -708573 -769698 -831891 -602177 -623819 -671054 -746896 -829486 -901702
          -596802 -621764 -680761 -790899 -907806 -999669 -582691 -604922 -655048 -742010 -857978 -994271
          -562250 -579732 -617236 -678239 -761534 -859650 -539212 -552345 -579539 -621676 -677082 -737959
          -516419 -526152 -545808 -575150 -612020 -649901 -495673 -502846 -517037 -537530 -562129 -585953
          -478108 -483398 -493673 -508068 -524677 -540159 -464453 -468434 -476045 -486452 -498134 -508872
          -455158 -458320 -464301 -472348 -481251 -489458 -450460 -453233 -458446 -465406 -473069 -480177
          -605205 -619792 -649031 -692098 -745982 -806694 -605273 -621636 -655154 -705778 -768987 -835825
          -603558 -622896 -664370 -731405 -818038 -896216 -596861 -618452 -667365 -755234 -884554 -977053
          -582669 -602870 -648558 -731780 -866050 -986997 -562365 -578743 -614400 -675136 -766023 -868439
          -539261 -551525 -577104 -617450 -671727 -728952 -516350 -525236 -543131 -569717 -602756 -635570
          -495623 -502022 -514578 -532467 -553578 -573810 -478243 -482905 -491884 -504314 -518520 -531910
          -464856 -468364 -475034 -484099 -494275 -503848 -455801 -458610 -463911 -471036 -478976 -486493
          -451242 -453723 -458387 -464629 -471569 -478183 -604732 -618630 -646730 -688931 -743245 -804824
          -604065 -619423 -651242 -700886 -766590 -835299 -601247 -619075 -658038 -725395 -827327 -907072
          -593791 -613669 -660358 -757132 -984371 -1.03847e+06 -579732 -598815 -644242 -741712 -988710 -1.08917e+06
          -559919 -575555 -610909 -677438 -800762 -984242 -537280 -548913 -573686 -614701 -674951 -743806
          -514760 -523053 -539891 -565360 -597939 -630846 -494407 -500278 -511814 -528311 -547930 -566889
          -477402 -481633 -489773 -501041 -513971 -526330 -464359 -467534 -473567 -481770 -491036 -499923
          -455567 -458118 -462931 -469420 -476713 -483766 -451150 -453411 -457666 -463383 -469805 -476057
          -601196 -614235 -640716 -680892 -733563 -794582 -599937 -614118 -643552 -689809 -752601 -824193
          -596249 -612315 -647154 -706541 -796280 -898741 -588233 -605801 -645985 -722932 -866501 -1.05696e+06
          -574438 -591424 -630823 -708607 -862262 -1.0797e+06 -555487 -569739 -601829 -661874 -776160 -1.01661e+06
          -533810 -544576 -567573 -606041 -664630 -740672 -512121 -519836 -535549 -559523 -590839 -623951
          -492438 -497895 -508638 -524082 -542656 -560984 -475963 -479887 -487448 -497951 -510099 -521896
          -463322 -466267 -471869 -479513 -488216 -496692 -454804 -457174 -461654 -467717 -474588 -481339
          -450526 -452631 -456600 -461956 -468025 -474026 -595866 -607954 -632526 -669959 -719601 -778243
          -594140 -607061 -633777 -675675 -733267 -802730 -589783 -604008 -634385 -684955 -761003 -861246
          -581384 -596537 -630054 -690156 -794623 -978771 -567949 -582555 -615110 -674120 -776305 -936961
          -550018 -562525 -589854 -637574 -715732 -831174 -529565 -539274 -559697 -592748 -640085 -696786
          -508963 -516077 -530489 -552244 -580239 -609852 -490120 -495227 -505274 -519707 -537100 -554522
          -474256 -477959 -485102 -495052 -506634 -518042 -462040 -464830 -470149 -477433 -485784 -494017
          -453791 -456042 -460306 -466100 -472711 -479276 -449644 -451646 -455428 -460554 -466399 -472238
          -589936 -601127 -623862 -658534 -704792 -760165 -587888 -599669 -623915 -661733 -713787 -778190
          -583100 -595755 -622391 -665677 -729076 -813522 -574539 -587727 -616107 -664272 -740337 -853786
          -561553 -574237 -601662 -648514 -722799 -833525 -544630 -555687 -579263 -618419 -677328 -756535
          -525385 -534216 -552545 -581464 -621374 -668421 -505868 -512514 -525918 -546005 -571688 -599275
          -487858 -492722 -502294 -516067 -532754 -549773 -472582 -476149 -483044 -492690 -504004 -515293
          -460757 -463459 -468621 -475722 -483918 -492067 -452746 -454930 -459074 -464728 -471212 -477694
          -448713 -450655 -454332 -459331 -465059 -470813 -584372 -594841 -616103 -648564 -692088 -744728
          -582153 -593070 -615484 -650391 -698666 -759728 -577177 -588736 -612898 -651791 -708507 -786138
          -568671 -580595 -605943 -648060 -712762 -808338 -556187 -567707 -592337 -633670 -698129 -795712
          -540154 -550380 -572048 -607725 -661220 -735357 -521924 -530290 -547659 -575149 -613611 -660954
          -503305 -509737 -522763 -542473 -568173 -596818 -485975 -490750 -500197 -513932 -530861 -548541
          -471171 -474697 -481545 -491206 -502673 -514260 -459653 -462328 -467456 -474552 -482801 -491052
          -451827 -453986 -458093 -463717 -470196 -476692 -447880 -449797 -453433 -458390 -464088 -469824
          -579831 -589792 -610023 -640946 -682542 -733147 -577559 -587910 -609164 -642323 -688520 -748163
          -572577 -583500 -606330 -643184 -697659 -775618 -564269 -575558 -599581 -639728 -702628 -800576
          -552280 -563319 -587056 -627555 -693352 -801486 -536965 -546951 -568354 -604604 -662434 -752733
          -519489 -527812 -545347 -574017 -616749 -675221 -501503 -507982 -521290 -542001 -570356 -604215
          -484638 -489473 -499146 -513501 -531762 -551536 -470148 -473716 -480700 -490683 -502745 -515121
          -458832 -461528 -466722 -473963 -482455 -490990 -451126 -453291 -457422 -463101 -469671 -476262
          -447234 -449151 -452792 -457768 -463500 -469270 -576683 -586327 -605908 -635807 -675892 -724143
          -574419 -584443 -605026 -637129 -681727 -738486 -569516 -580120 -602317 -638247 -691454 -766603
          -561434 -572482 -596117 -636070 -700027 -802861 -549852 -560817 -584677 -626522 -698558 -830856
          -535051 -545147 -567201 -606218 -674571 -804277 -518065 -526598 -544971 -576495 -628286 -713203
          -500459 -507139 -521118 -543731 -576936 -621218 -483854 -488832 -498926 -514298 -534688 -558000
          -469533 -473186 -480398 -490866 -503791 -517339 -458323 -461064 -466369 -473826 -482657 -491586
          -450680 -452866 -457048 -462820 -469523 -476251 -446818 -448746 -452413 -457435 -463229 -469056
          -575104 -584595 -603853 -633199 -672333 -718819 -572860 -582732 -602991 -634513 -677954 -731947
          -568021 -578492 -600407 -635797 -687582 -757698 -560084 -571058 -594570 -634311 -697137 -792563
          -548733 -559728 -583781 -626249 -699063 -825426 -534206 -544448 -567074 -607993 -682139 -826479
          -517464 -526200 -545310 -579323 -640026 -761558 -500031 -506885 -521429 -545682 -583541 -640366
          -483535 -488628 -499059 -515261 -537519 -564412 -469279 -472999 -480386 -491229 -504852 -519431
          -458110 -460885 -466275 -473893 -482983 -492227 -450491 -452694 -456916 -462758 -469560 -476392
          -446641 -448578 -452267 -457326 -463167 -469037
        </DataArray>
        <DataArray type="Float32" Name="saturation" NumberOfComponents="1" format="ascii">
          0.742335 0.741404 0.739626 0.737231 0.734606 0.731981 0.742202 0.741122 0.739018 0.736169 0.733276 0.73039
          0.742067 0.74071 0.737922 0.73397 0.730704 0.727282 0.742186 0.740564 0.736967 0.731133 0.727829 0.723482
          0.742817 0.741291 0.738066 0.733168 0.728084 0.721604 0.743847 0.742483 0.739644 0.735223 0.729293 0.721245
          0.74512 0.74389 0.741293 0.737037 0.730609 0.721465 0.746535 0.745435 0.743068 0.738992 0.732182 0.720427
          0.748002 0.747077 0.745095 0.741743 0.736504 0.729619 0.749405 0.748684 0.747194 0.744857 0.741716 0.738581
          0.750597 0.750059 0.74899 0.747438 0.745595 0.744001 0.751458 0.751046 0.750255 0.74917 0.747974 0.74698
          0.751906 0.751557 0.750899 0.750023 0.749087 0.748307 0.740757 0.739736 0.737782 0.73517 0.732425 0.729723
          0.740601 0.739376 0.73694 0.733612 0.73069 0.727943 0.740438 0.738798 0.735173 0.729427 0.726812 0.724213
          0.740588 0.738506 0.732968 0.718378 0.721284 0.719257 0.741427 0.739658 0.735677 0.729051 0.724514 0.718514
          0.742716 0.741295 0.738325 0.733772 0.728343 0.721237 0.744228 0.743054 0.740632 0.73687 0.731728 0.72502
          0.745825 0.744842 0.742808 0.739594 0.735047 0.729388 0.747404 0.746605 0.744968 0.742435 0.739048 0.735469
          0.748855 0.748235 0.746995 0.745171 0.742938 0.740884 0.750058 0.749588 0.748673 0.747393 0.745937 0.744684
          0.750915 0.750547 0.749848 0.748905 0.747879 0.747006 0.751359 0.751042 0.750447 0.749661 0.74882 0.748099
          0.739626 0.738571 0.736543 0.733808 0.73087 0.727972 0.739494 0.738236 0.735729 0.732255 0.728938 0.726021
          0.739387 0.73773 0.734098 0.728332 0.724168 0.721499 0.739634 0.737583 0.732351 0.720125 0.71528 0.71455
          0.740592 0.738838 0.734915 0.728332 0.721959 0.714783 0.742033 0.740655 0.737793 0.733433 0.728195 0.722106
          0.7437 0.742614 0.740417 0.737137 0.732995 0.728364 0.74542 0.744555 0.742823 0.740258 0.737025 0.733631
          0.74707 0.746389 0.745043 0.743089 0.74072 0.738443 0.748543 0.748018 0.746998 0.745564 0.743909 0.74242
          0.749739 0.749336 0.748567 0.747517 0.746353 0.745332 0.75058 0.750259 0.749653 0.748846 0.74797 0.747201
          0.751014 0.750732 0.750207 0.749514 0.748769 0.748109 0.738964 0.737931 0.735942 0.733218 0.730153 0.727023
          0.738895 0.737705 0.735364 0.732113 0.728639 0.725367 0.738906 0.737437 0.734391 0.729903 0.725489 0.721967
          0.739278 0.737575 0.733791 0.727496 0.721682 0.717609 0.740271 0.738717 0.7354 0.730179 0.724065 0.717838
          0.74175 0.740482 0.737879 0.733946 0.729087 0.723983 0.743477 0.742484 0.740496 0.73758 0.734017 0.730409
          0.745253 0.744486 0.742975 0.740811 0.738232 0.735729 0.746934 0.746346 0.745204 0.743605 0.741759 0.74004
          0.748407 0.747958 0.747099 0.745922 0.744602 0.743404 0.749586 0.749239 0.748583 0.747701 0.746731 0.745857
          0.750407 0.750126 0.7496 0.748901 0.74814 0.74745 0.750827 0.750579 0.750115 0.749503 0.748839 0.748231
          0.738697 0.737707 0.735785 0.733099 0.729954 0.726663 0.738693 0.737583 0.735393 0.732279 0.728678 0.725168
          0.738811 0.737499 0.73481 0.730783 0.726075 0.722225 0.739274 0.737797 0.734622 0.729436 0.722778 0.718576
          0.740273 0.738858 0.735816 0.730762 0.72367 0.718148 0.741741 0.740553 0.73807 0.734138 0.72884 0.723553
          0.743473 0.742545 0.74067 0.737864 0.734349 0.730924 0.745259 0.744558 0.743178 0.741204 0.738866 0.73666
          0.746938 0.746413 0.7454 0.743995 0.742392 0.740907 0.748395 0.748 0.747248 0.746226 0.745087 0.744038
          0.749551 0.749245 0.74867 0.747899 0.747049 0.746264 0.75035 0.7501 0.749634 0.749014 0.748333 0.747698
          0.750757 0.750535 0.75012 0.749571 0.748968 0.748401 0.73873 0.737785 0.735934 0.733291 0.730109 0.726761
          0.738776 0.737732 0.735643 0.732571 0.728809 0.725195 0.73897 0.737755 0.73521 0.731129 0.725599 0.721716
          0.739488 0.73812 0.735063 0.729331 0.718261 0.715999 0.740482 0.739138 0.736094 0.730196 0.718075 0.713984
          0.741921 0.740782 0.738307 0.733995 0.726974 0.718266 0.743625 0.742741 0.740916 0.73805 0.734149 0.730077
          0.745385 0.744729 0.743425 0.741521 0.739199 0.736971 0.747038 0.746555 0.745621 0.744318 0.742815 0.74141
          0.748467 0.748107 0.747423 0.746493 0.745448 0.744472 0.749594 0.749317 0.748796 0.748096 0.747318 0.746584
          0.75037 0.750144 0.74972 0.749154 0.748526 0.747927 0.750765 0.750563 0.750184 0.74968 0.74912 0.748582
          0.738974 0.738082 0.736323 0.733783 0.730659 0.7273 0.739061 0.73809 0.736139 0.733238 0.729583 0.725759
          0.739317 0.738212 0.735906 0.732234 0.72721 0.722106 0.739879 0.738657 0.735982 0.731272 0.723648 0.715253
          0.740862 0.739654 0.736972 0.732112 0.723855 0.714353 0.74225 0.741202 0.73893 0.734967 0.728287 0.716898
          0.743891 0.743069 0.74136 0.73864 0.734793 0.730254 0.745596 0.744983 0.743758 0.741951 0.739695 0.737428
          0.747202 0.746751 0.745876 0.744648 0.743214 0.741843 0.74859 0.748255 0.747618 0.746746 0.745759 0.74482
          0.749685 0.749428 0.748942 0.748287 0.747553 0.74685 0.750438 0.750228 0.749832 0.749302 0.748708 0.748132
          0.750821 0.750633 0.750279 0.749805 0.749275 0.748756 0.739343 0.738509 0.73686 0.73446 0.731466 0.728174
          0.739464 0.73857 0.736777 0.734104 0.730676 0.72687 0.739769 0.73878 0.736737 0.733534 0.729117 0.723904
          0.740364 0.739297 0.737023 0.733217 0.727298 0.718502 0.741332 0.740281 0.738022 0.734201 0.728279 0.720347
          0.742658 0.741729 0.739764 0.736528 0.731692 0.725403 0.74422 0.743472 0.741938 0.739561 0.736364 0.732817
          0.74585 0.745281 0.744148 0.742492 0.740446 0.738379 0.747394 0.746971 0.746148 0.744993 0.743638 0.742322
          0.748737 0.74842 0.747815 0.746985 0.746038 0.745125 0.749798 0.749553 0.749091 0.748465 0.747757 0.747071
          0.750529 0.750328 0.749951 0.749442 0.748869 0.748308 0.750901 0.750721 0.750383 0.749929 0.749416 0.74891
          0.739759 0.738978 0.737434 0.735178 0.732338 0.729163 0.739903 0.739079 0.737431 0.734976 0.731806 0.728177
          0.740242 0.739351 0.737533 0.734728 0.730917 0.726308 0.740855 0.739914 0.737955 0.734816 0.730273 0.724271
          0.741801 0.740877 0.738941 0.735819 0.73128 0.725284 0.743065 0.742235 0.740516 0.737799 0.734002 0.729364
          0.744546 0.74386 0.742469 0.740359 0.737601 0.734556 0.7461 0.745565 0.744504 0.742961 0.741061 0.739107
          0.747583 0.747178 0.746391 0.745281 0.743973 0.742677 0.748881 0.748574 0.747988 0.747181 0.746251 0.745343
          0.749911 0.749673 0.749223 0.748611 0.747914 0.747232 0.750622 0.750427 0.750059 0.749562 0.748999 0.748442
          0.750985 0.75081 0.750481 0.750037 0.749533 0.749033 0.740152 0.739415 0.737955 0.735815 0.7331 0.730025
          0.740309 0.739539 0.737997 0.735698 0.732704 0.729187 0.740665 0.739843 0.738172 0.735608 0.732117 0.72775
          0.74128 0.74042 0.738647 0.735848 0.731866 0.726577 0.742198 0.74135 0.73959 0.736784 0.732736 0.72724
          0.743405 0.742631 0.741035 0.738525 0.735008 0.730557 0.744818 0.744164 0.742836 0.740811 0.738124 0.735025
          0.746308 0.745788 0.744752 0.743228 0.741316 0.739277 0.747741 0.747342 0.746562 0.745452 0.74412 0.742769
          0.749002 0.748699 0.748115 0.747304 0.74636 0.745425 0.750008 0.749773 0.749324 0.748711 0.748009 0.747317
          0.750705 0.750511 0.750146 0.749651 0.749086 0.748528 0.75106 0.750887 0.750561 0.75012 0.749618 0.749119
          0.740475 0.739769 0.738368 0.736308 0.733681 0.730683 0.740638 0.739901 0.738426 0.736219 0.733316 0.729832
          0.740997 0.740214 0.73862 0.736163 0.732764 0.728317 0.741601 0.740781 0.739085 0.736388 0.732467 0.726984
          0.742489 0.741671 0.739962 0.737188 0.733023 0.726936 0.743649 0.742889 0.741303 0.738739 0.734932 0.729576
          0.74501 0.744357 0.74301 0.740893 0.737912 0.734132 0.746455 0.745929 0.744868 0.743264 0.741157 0.738765
          0.747854 0.747448 0.746648 0.745486 0.74405 0.742545 0.749091 0.748783 0.748187 0.747347 0.746354 0.745357
          0.750081 0.749843 0.749388 0.748762 0.748038 0.747322 0.750767 0.750574 0.750206 0.749705 0.749132 0.748565
          0.751118 0.750945 0.750618 0.750175 0.74967 0.749167 0.740701 0.740013 0.738649 0.736644 0.734091 0.731202
          0.740864 0.740147 0.73871 0.736557 0.733731 0.730379 0.741218 0.740454 0.738896 0.736484 0.733138 0.728808
          0.74181 0.741003 0.739326 0.736627 0.732622 0.726864 0.742671 0.741855 0.74013 0.737257 0.73271 0.725419
          0.743796 0.743025 0.741387 0.738628 0.734173 0.726789 0.745123 0.744451 0.743039 0.740714 0.73714 0.73184
          0.74654 0.745997 0.744881 0.743133 0.740682 0.737611 0.74792 0.747502 0.746666 0.745422 0.743824 0.742063
          0.749144 0.748829 0.748212 0.747332 0.746269 0.74518 0.750126 0.749884 0.749419 0.748774 0.748021 0.747272
          0.750808 0.750611 0.750239 0.749729 0.749145 0.748566 0.751156 0.750982 0.750652 0.750204 0.749693 0.749185
          0.740814 0.740136 0.73879 0.736815 0.734312 0.731511 0.740976 0.740268 0.73885 0.736729 0.733963 0.730752
          0.741327 0.740571 0.739028 0.736645 0.733373 0.7293 0.741909 0.741107 0.739434 0.736742 0.732795 0.727407
          0.742755 0.741935 0.740194 0.737275 0.73268 0.725696 0.743861 0.743078 0.741396 0.738506 0.733706 0.725642
          0.74517 0.744482 0.743013 0.740511 0.736368 0.729086 0.746575 0.746018 0.744857 0.742985 0.740211 0.736346
          0.747947 0.747519 0.746655 0.745345 0.743606 0.741591 0.749166 0.748845 0.748213 0.747302 0.746183 0.745014
          0.750145 0.7499 0.749427 0.748768 0.747993 0.747219 0.750825 0.750627 0.750251 0.749735 0.749142 0.748554
          0.751172 0.750997 0.750665 0.750214 0.749699 0.749187
        </DataArray>
        <DataArray type="Float32" Name="process rank" NumberOfComponents="1" format="ascii">
          2 2 2 2 2 2 2 2 2 2 2 2
          2 2 2 2 2 2 2 2 2 2 2 2
          2 2 2 2 2 2 2 2 2 2 2 2
          2 2 2 2 2 2 2 2 2 2 2 2
          2 2 2 2 2 2 2 2 2 2 2 2
          2 2 2 2 2 2 2 2 2 2 2 2
          2 2 2 2 2 2 2 2 2 2 2 2
          2 2 2 2 2 2 2 2 2 2 2 2
          2 2 2 2 2 2 2 2 2 2 2 2
          2 2 2 2 2 2 2 2 2 2 2 2
          2 2 2 2 2 2 2 2 2 2 2 2
          2 2 2 2 2 2 2 2 2 2 2 2
          2 2 2 2 2 2 2 2 2 2 2 2
          2 2 2 2 2 2 2 2 2 2 2 2
          2 2 2 2 2 2 2 2 2 2 2 2
          2 2 2 2 2 2 2 2 2 2 2 2
          2 2 2 2 2 2 2 2 2 2 2 2
          2 2 2 2 2 2 2 2 2 2 2 2
          2 2 2 2 2 2 2 2 2 2 2 2
          2 2 2 2 2 2 2 2 2 2 2 2
          2 2 2 2 2 2 2 2 2 2 2 2
          2 2 2 2 2 2 2 2 2 2 2 2
          2 2 2 2 2 2 2 2 2 2 2 2
          2 2 2 2 2 2 2 2 2 2 2 2
          2 2 2 2 2 2 2 2 2 2 2 2
          2 2 2 2 2 2 2 2 2 2 2 2
          2 2 2 2 2 2 2 2 2 2 2 2
          2 2 2 2 2 2 2 2 2 2 2 2
          2 2 2 2 2 2 2 2 2 2 2 2
          2 2 2 2 2 2 2 2 2 2 2 2
          2 2 2 2 2 2 2 2 2 2 2 2
          2 2 2 2 2 2 2 2 2 2 2 2
          2 2 2 2 2 2 2 2 2 2 2 2
          2 2 2 2 2 2 2 2 2 2 2 2
          2 2 2 2 2 2 2 2 2 2 2 2
          2 2 2 2 2 2 2 2 2 2 2 2
          2 2 2 2 2 2 2 2 2 2 2 2
          2 2 2 2 2 2 2 2 2 2 2 2
          2 2 2 2 2 2 2 2 2 2 2 2
          2 2 2 2 2 2 2 2 2 2 2 2
          2 2 2 2 2 2 2 2 2 2 2 2
          2 2 2 2 2 2 2 2 2 2 2 2
          2 2 2 2 2 2 2 2 2 2 2 2
          2 2 2 2 2 2 2 2 2 2 2 2
          2 2 2 2 2 2 2 2 2 2 2 2
          2 2 2 2 2 2 2 2 2 2 2 2
          2 2 2 2 2 2 2 2 2 2 2 2
          2 2 2 2 2 2 2 2 2 2 2 2
          2 2 2 2 2 2 2 2 2 2 2 2
          2 2 2 2 2 2 2 2 2 2 2 2
          2 2 2 2 2 2 2 2 2 2 2 2
          2 2 2 2 2 2 2 2 2 2 2 2
          2 2 2 2 2 2 2 2 2 2 2 2
          2 2 2 2 2 2 2 2 2 2 2 2
          2 2 2 2 2 2 2 2 2 2 2 2
          2 2 2 2 2 2 2 2 2 2 2 2
          2 2 2 2 2 2 2 2 2 2 2 2
          2 2 2 2 2 2 2 2 2 2 2 2
          2 2 2 2 2 2 2 2 2 2 2 2
          2 2 2 2 2 2 2 2 2 2 2 2
          2 2 2 2 2 2 2 2 2 2 2 2
          2 2 2 2 2 2 2 2 2 2 2 2
          2 2 2 2 2 2 2 2 2 2 2 2
          2 2 2 2 2 2 2 2 2 2 2 2
          2 2 2 2 2 2 2 2 2 2 2 2
          2 2 2 2 2 2 2 2 2 2 2 2
          2 2 2 2 2 2 2 2 2 2 2 2
          2 2 2 2 2 2 2 2 2 2 2 2
          2 2 2 2 2 2 2 2 2 2 2 2
          2 2 2 2 2 2 2 2 2 2 2 2
          2 2 2 2 2 2 2 2 2 2 2 2
          2 2 2 2 2 2 2 2 2 2 2 2
          2 2 2 2 2 2 2 2 2 2 2 2
          2 2 2 2 2 2 2 2 2 2 2 2
          2 2 2 2 2 2 2 2 2 2 2 2
          2 2 2 2 2 2 2 2 2 2 2 2
          2 2 2 2 2 2 2 2 2 2 2 2
          2 2 2 2 2 2 2 2 2 2 2 2
          2 2 2 2 2 2 2 2 2 2 2 2
          2 2 2 2 2 2 2 2 2 2 2 2
          2 2 2 2 2 2 2 2 2 2 2 2
          2 2 2 2 2 2 2 2 2 2 2 2
          2 2 2 2 2 2 2 2 2 2 2 2
          2 2 2 2 2 2 2 2 2 2 2 2
          2 2 2 2 2 2
        </DataArray>
      </CellData>
      <Points>
        <DataArray type="Float32" Name="Coordinates" NumberOfComponents="3" format="ascii">
          -0.04 -0.04 -0.078 -0.0338462 -0.04 -0.078 -0.04 -0.0338462 -0.078 -0.0338462 -0.0338462 -0.078
          -0.04 -0.04 -0.072 -0.0338462 -0.04 -0.072 -0.04 -0.0338462 -0.072 -0.0338462 -0.0338462 -0.072
          -0.0276923 -0.04 -0.078 -0.0276923 -0.0338462 -0.078 -0.0276923 -0.04 -0.072 -0.0276923 -0.0338462 -0.072
          -0.0215385 -0.04 -0.078 -0.0215385 -0.0338462 -0.078 -0.0215385 -0.04 -0.072 -0.0215385 -0.0338462 -0.072
          -0.0153846 -0.04 -0.078 -0.0153846 -0.0338462 -0.078 -0.0153846 -0.04 -0.072 -0.0153846 -0.0338462 -0.072
          -0.00923077 -0.04 -0.078 -0.00923077 -0.0338462 -0.078 -0.00923077 -0.04 -0.072 -0.00923077 -0.0338462 -0.072
          -0.00307692 -0.04 -0.078 -0.00307692 -0.0338462 -0.078 -0.00307692 -0.04 -0.072 -0.00307692 -0.0338462 -0.072
          -0.04 -0.0276923 -0.078 -0.0338462 -0.0276923 -0.078 -0.04 -0.0276923 -0.072 -0.0338462 -0.0276923 -0.072
          -0.0276923 -0.0276923 -0.078 -0.0276923 -0.0276923 -0.072 -0.0215385 -0.0276923 -0.078 -0.0215385 -0.0276923 -0.072
          -0.0153846 -0.0276923 -0.078 -0.0153846 -0.0276923 -0.072 -0.00923077 -0.0276923 -0.078 -0.00923077 -0.0276923 -0.072
          -0.00307692 -0.0276923 -0.078 -0.00307692 -0.0276923 -0.072 -0.04 -0.0215385 -0.078 -0.0338462 -0.0215385 -0.078
          -0.04 -0.0215385 -0.072 -0.0338462 -0.0215385 -0.072 -0.0276923 -0.0215385 -0.078 -0.0276923 -0.0215385 -0.072
          -0.0215385 -0.0215385 -0.078 -0.0215385 -0.0215385 -0.072 -0.0153846 -0.0215385 -0.078 -0.0153846 -0.0215385 -0.072
          -0.00923077 -0.0215385 -0.078 -0.00923077 -0.0215385 -0.072 -0.00307692 -0.0215385 -0.078 -0.00307692 -0.0215385 -0.072
          -0.04 -0.0153846 -0.078 -0.0338462 -0.0153846 -0.078 -0.04 -0.0153846 -0.072 -0.0338462 -0.0153846 -0.072
          -0.0276923 -0.0153846 -0.078 -0.0276923 -0.0153846 -0.072 -0.0215385 -0.0153846 -0.078 -0.0215385 -0.0153846 -0.072
          -0.0153846 -0.0153846 -0.078 -0.0153846 -0.0153846 -0.072 -0.00923077 -0.0153846 -0.078 -0.00923077 -0.0153846 -0.072
          -0.00307692 -0.0153846 -0.078 -0.00307692 -0.0153846 -0.072 -0.04 -0.00923077 -0.078 -0.0338462 -0.00923077 -0.078
          -0.04 -0.00923077 -0.072 -0.0338462 -0.00923077 -0.072 -0.0276923 -0.00923077 -0.078 -0.0276923 -0.00923077 -0.072
          -0.0215385 -0.00923077 -0.078 -0.0215385 -0.00923077 -0.072 -0.0153846 -0.00923077 -0.078 -0.0153846 -0.00923077 -0.072
          -0.00923077 -0.00923077 -0.078 -0.00923077 -0.00923077 -0.072 -0.00307692 -0.00923077 -0.078 -0.00307692 -0.00923077 -0.072
          -0.04 -0.00307692 -0.078 -0.0338462 -0.00307692 -0.078 -0.04 -0.00307692 -0.072 -0.0338462 -0.00307692 -0.072
          -0.0276923 -0.00307692 -0.078 -0.0276923 -0.00307692 -0.072 -0.0215385 -0.00307692 -0.078 -0.0215385 -0.00307692 -0.072
          -0.0153846 -0.00307692 -0.078 -0.0153846 -0.00307692 -0.072 -0.00923077 -0.00307692 -0.078 -0.00923077 -0.00307692 -0.072
          -0.00307692 -0.00307692 -0.078 -0.00307692 -0.00307692 -0.072 -0.04 0.00307692 -0.078 -0.0338462 0.00307692 -0.078
          -0.04 0.00307692 -0.072 -0.0338462 0.00307692 -0.072 -0.0276923 0.00307692 -0.078 -0.0276923 0.00307692 -0.072
          -0.0215385 0.00307692 -0.078 -0.0215385 0.00307692 -0.072 -0.0153846 0.00307692 -0.078 -0.0153846 0.00307692 -0.072
          -0.00923077 0.00307692 -0.078 -0.00923077 0.00307692 -0.072 -0.00307692 0.00307692 -0.078 -0.00307692 0.00307692 -0.072
          -0.04 0.00923077 -0.078 -0.0338462 0.00923077 -0.078 -0.04 0.00923077 -0.072 -0.0338462 0.00923077 -0.072
          -0.0276923 0.00923077 -0.078 -0.0276923 0.00923077 -0.072 -0.0215385 0.00923077 -0.078 -0.0215385 0.00923077 -0.072
          -0.0153846 0.00923077 -0.078 -0.0153846 0.00923077 -0.072 -0.00923077 0.00923077 -0.078 -0.00923077 0.00923077 -0.072
          -0.00307692 0.00923077 -0.078 -0.00307692 0.00923077 -0.072 -0.04 0.0153846 -0.078 -0.0338462 0.0153846 -0.078
          -0.04 0.0153846 -0.072 -0.0338462 0.0153846 -0.072 -0.0276923 0.0153846 -0.078 -0.0276923 0.0153846 -0.072
          -0.0215385 0.0153846 -0.078 -0.0215385 0.0153846 -0.072 -0.0153846 0.0153846 -0.078 -0.0153846 0.0153846 -0.072
          -0.00923077 0.0153846 -0.078 -0.00923077 0.0153846 -0.072 -0.00307692 0.0153846 -0.078 -0.00307692 0.0153846 -0.072
          -0.04 0.0215385 -0.078 -0.0338462 0.0215385 -0.078 -0.04 0.0215385 -0.072 -0.0338462 0.0215385 -0.072
          -0.0276923 0.0215385 -0.078 -0.0276923 0.0215385 -0.072 -0.0215385 0.0215385 -0.078 -0.0215385 0.0215385 -0.072
          -0.0153846 0.0215385 -0.078 -0.0153846 0.0215385 -0.072 -0.00923077 0.0215385 -0.078 -0.00923077 0.0215385 -0.072
          -0.00307692 0.0215385 -0.078 -0.00307692 0.0215385 -0.072 -0.04 0.0276923 -0.078 -0.0338462 0.0276923 -0.078
          -0.04 0.0276923 -0.072 -0.0338462 0.0276923 -0.072 -0.0276923 0.0276923 -0.078 -0.0276923 0.0276923 -0.072
          -0.0215385 0.0276923 -0.078 -0.0215385 0.0276923 -0.072 -0.0153846 0.0276923 -0.078 -0.0153846 0.0276923 -0.072
          -0.00923077 0.0276923 -0.078 -0.00923077 0.0276923 -0.072 -0.00307692 0.0276923 -0.078 -0.00307692 0.0276923 -0.072
          -0.04 0.0338462 -0.078 -0.0338462 0.0338462 -0.078 -0.04 0.0338462 -0.072 -0.0338462 0.0338462 -0.072
          -0.0276923 0.0338462 -0.078 -0.0276923 0.0338462 -0.072 -0.0215385 0.0338462 -0.078 -0.0215385 0.0338462 -0.072
          -0.0153846 0.0338462 -0.078 -0.0153846 0.0338462 -0.072 -0.00923077 0.0338462 -0.078 -0.00923077 0.0338462 -0.072
          -0.00307692 0.0338462 -0.078 -0.00307692 0.0338462 -0.072 -0.04 0.04 -0.078 -0.0338462 0.04 -0.078
          -0.04 0.04 -0.072 -0.0338462 0.04 -0.072 -0.0276923 0.04 -0.078 -0.0276923 0.04 -0.072
          -0.0215385 0.04 -0.078 -0.0215385 0.04 -0.072 -0.0153846 0.04 -0.078 -0.0153846 0.04 -0.072
          -0.00923077 0.04 -0.078 -0.00923077 0.04 -0.072 -0.00307692 0.04 -0.078 -0.00307692 0.04 -0.072
          -0.04 -0.04 -0.066 -0.0338462 -0.04 -0.066 -0.04 -0.0338462 -0.066 -0.0338462 -0.0338462 -0.066
          -0.0276923 -0.04 -0.066 -0.0276923 -0.0338462 -0.066 -0.0215385 -0.04 -0.066 -0.0215385 -0.0338462 -0.066
          -0.0153846 -0.04 -0.066 -0.0153846 -0.0338462 -0.066 -0.00923077 -0.04 -0.066 -0.00923077 -0.0338462 -0.066
          -0.00307692 -0.04 -0.066 -0.00307692 -0.0338462 -0.066 -0.04 -0.0276923 -0.066 -0.0338462 -0.0276923 -0.066
          -0.0276923 -0.0276923 -0.066 -0.0215385 -0.0276923 -0.066 -0.0153846 -0.0276923 -0.066 -0.00923077 -0.0276923 -0.066
          -0.00307692 -0.0276923 -0.066 -0.04 -0.0215385 -0.066 -0.0338462 -0.0215385 -0.066 -0.0276923 -0.0215385 -0.066
          -0.0215385 -0.0215385 -0.066 -0.0153846 -0.0215385 -0.066 -0.00923077 -0.0215385 -0.066 -0.00307692 -0.0215385 -0.066
          -0.04 -0.0153846 -0.066 -0.0338462 -0.0153846 -0.066 -0.0276923 -0.0153846 -0.066 -0.0215385 -0.0153846 -0.066
          -0.0153846 -0.0153846 -0.066 -0.00923077 -0.0153846 -0.066 -0.00307692 -0.0153846 -0.066 -0.04 -0.00923077 -0.066
          -0.0338462 -0.00923077 -0.066 -0.0276923 -0.00923077 -0.066 -0.0215385 -0.00923077 -0.066 -0.0153846 -0.00923077 -0.066
          -0.00923077 -0.00923077 -0.066 -0.00307692 -0.00923077 -0.066 -0.04 -0.00307692 -0.066 -0.0338462 -0.00307692 -0.066
          -0.0276923 -0.00307692 -0.066 -0.0215385 -0.00307692 -0.066 -0.0153846 -0.00307692 -0.066 -0.00923077 -0.00307692 -0.066
          -0.00307692 -0.00307692 -0.066 -0.04 0.00307692 -0.066 -0.0338462 0.00307692 -0.066 -0.0276923 0.00307692 -0.066