<?xml version="1.0"?>
<VTKFile type="UnstructuredGrid" version="0.1" byte_order="LittleEndian">
  <UnstructuredGrid>
    <Piece NumberOfCells="936" NumberOfPoints="1274">
      <CellData Scalars="p (Pa)">
        <DataArray type="Float32" Name="p (Pa)" NumberOfComponents="1" format="ascii">
          -337436 -338407 -340251 -342777 -345707 -348708 -337097 -338077 -339940 -342493 -345458 -348496
          -336395 -337386 -339273 -341863 -344877 -347966 -335297 -336291 -338186 -340792 -343829 -346943
          -333783 -334764 -336632 -339202 -342195 -345264 -331877 -332821 -334617 -337082 -339947 -342876
          -329654 -330540 -332221 -334521 -337183 -339894 -327245 -328057 -329595 -331691 -334106 -336557
          -324822 -325554 -326938 -328817 -330976 -333164 -322575 -323231 -324469 -326146 -328069 -330021
          -320694 -321286 -322401 -323910 -325641 -327403 -319341 -319886 -320914 -322305 -323901 -325531
          -318633 -319155 -320137 -321466 -322993 -324556 -340611 -341693 -343752 -346577 -349855 -353199
          -340283 -341380 -343470 -346343 -349686 -353101 -339594 -340712 -342846 -345789 -349228 -352752
          -338495 -339625 -341787 -344777 -348283 -351889 -336954 -338074 -340217 -343183 -346664 -350246
          -334984 -336064 -338127 -340974 -344301 -347709 -332660 -333672 -335598 -338242 -341311 -344429
          -330119 -331042 -332794 -335184 -337937 -340713 -327545 -328371 -329934 -332055 -334483 -336921
          -325148 -325880 -327263 -329132 -331265 -333405 -323133 -323787 -325018 -326680 -328574 -330479
          -321681 -322278 -323401 -324916 -326644 -328390 -320921 -321489 -322556 -323996 -325639 -327303
          -346937 -348255 -350772 -354240 -358276 -362374 -346635 -347982 -350562 -354131 -358306 -362566
          -345978 -347369 -350043 -353767 -358164 -362692 -344886 -346311 -349059 -352911 -357499 -362277
          -343295 -344720 -347470 -351332 -355944 -360771 -341198 -342576 -345230 -348939 -353336 -357890
          -338668 -339956 -342425 -345846 -349847 -353916 -335854 -337022 -339247 -342300 -345822 -349340
          -332968 -334000 -335957 -338618 -341652 -344648 -330255 -331156 -332854 -335148 -337744 -340298
          -327962 -328750 -330232 -332224 -334472 -336687 -326302 -327010 -328338 -330119 -332127 -334116
          -325432 -326098 -327346 -329019 -330907 -332784 -356470 -358175 -361448 -365996 -371323 -376725
          -356216 -357978 -361376 -366133 -371764 -377537 -355623 -357473 -361067 -366161 -372298 -378727
          -354557 -356484 -360250 -365647 -372269 -379391 -352902 -354849 -358663 -364149 -370924 -378313
          -350616 -352509 -356202 -361474 -367897 -374748 -347768 -349537 -352964 -357790 -363535 -369437
          -344527 -346121 -349185 -353437 -358380 -363284 -341145 -342536 -345188 -348816 -352951 -356955
          -337927 -339116 -341365 -344405 -347821 -351095 -335185 -336200 -338109 -340668 -343523 -346259
          -333191 -334082 -335750 -337976 -340453 -342841 -332144 -332970 -334514 -336571 -338861 -341079
          -369252 -371527 -375932 -382127 -389472 -396951 -369080 -371460 -376106 -382722 -390711 -399018
          -368599 -371149 -376181 -383497 -392610 -402484 -367596 -370301 -375691 -383675 -393945 -405671
          -365871 -368640 -374171 -382407 -393132 -405768 -363338 -366046 -371427 -379346 -389416 -400757
          -360056 -362593 -367591 -374810 -383663 -392976 -356216 -358497 -362949 -369260 -376744 -384156
          -352124 -354093 -357890 -363165 -369229 -374985 -348173 -349819 -352958 -357234 -362033 -366495
          -344776 -346143 -348723 -352187 -356017 -359568 -342296 -343463 -345650 -348559 -351756 -354741
          -340990 -342054 -344041 -346673 -349561 -352277 -385265 -388325 -394315 -402876 -413208 -423831
          -385216 -388465 -394895 -404269 -415917 -428318 -384913 -388467 -395622 -406390 -420462 -436517
          -384024 -387867 -395717 -407874 -424609 -445519 -382235 -386215 -394372 -407085 -424885 -448458
          -379398 -383322 -391308 -403540 -420011 -440061 -375560 -379266 -386737 -397938 -412310 -427988
          -370934 -374279 -380963 -390803 -402977 -415172 -365885 -368747 -374383 -382455 -392000 -400932
          -360929 -363272 -367802 -374097 -381244 -387691 -356632 -358519 -362110 -366973 -372345 -377151
          -353483 -355046 -357983 -361897 -366159 -370003 -351824 -353220 -355830 -359279 -363018 -366422
          -404367 -408438 -416504 -428252 -442753 -457883 -404488 -408872 -417696 -430930 -448006 -466779
          -404432 -409331 -419436 -435325 -457478 -484570 -403710 -409108 -420472 -439110 -467265 -507049
          -401856 -407509 -419436 -439054 -469021 -514678 -398653 -404283 -416060 -434978 -462234 -498359
          -394137 -399526 -410730 -428420 -452706 -480593 -388527 -393448 -403634 -419607 -441208 -464333
          -382247 -386435 -394949 -407817 -424079 -439587 -375980 -379332 -385971 -395536 -406794 -416781
          -370504 -373119 -378168 -385146 -392949 -399709 -366483 -368579 -372549 -377880 -383678 -388729
          -364365 -366199 -369637 -374189 -379088 -383404 -426240 -431513 -442075 -457749 -477580 -498669
          -426566 -432316 -444076 -462250 -486773 -514914 -426804 -433352 -447198 -470089 -504843 -551936
          -426268 -433607 -449562 -477617 -526103 -610539 -424309 -432064 -448907 -478210 -527223 -610199
          -420647 -428461 -445286 -473731 -517761 -580020 -415313 -422937 -439381 -467175 -509432 -562804
          -408518 -415601 -430991 -457591 -500484 -560535 -400727 -406743 -419524 -440512 -470652 -503198
          -392837 -397551 -407195 -421890 -440484 -457470 -385908 -389470 -396490 -406506 -418076 -427948
          -380822 -383585 -388877 -396091 -404007 -410709 -378148 -380513 -384974 -390919 -397307 -402773
          -450375 -456950 -470201 -490096 -515743 -543618 -450910 -458137 -473056 -496574 -529542 -569532
          -451431 -459764 -477662 -508417 -559513 -642125 -451020 -460473 -481499 -520941 -603534 -863626
          -448822 -458885 -481188 -521768 -596380 -747647 -444513 -454779 -477406 -517414 -584030 -686948
          -438148 -448360 -471180 -512658 -584774 -697145 -429940 -439607 -461710 -504718 -596549 -877450
          -420393 -428613 -446958 -480341 -538544 -625609 -410637 -416966 -430397 -452336 -483292 -515017
          -402059 -406709 -416091 -430028 -446983 -461727 -395780 -399284 -406085 -415544 -426121 -434944
          -392489 -395431 -401023 -408546 -416664 -423464 -476119 -484010 -499871 -523579 -554031 -587340
          -476849 -485540 -503382 -531172 -569405 -615236 -477584 -487632 -508984 -544667 -600484 -682346
          -477123 -488551 -513602 -558390 -639159 -797783 -474386 -486625 -513623 -561896 -646262 -797128
          -469045 -481633 -509569 -559517 -643838 -775484 -461258 -473892 -502599 -556423 -654689 -818823
          -451326 -463388 -491647 -549034 -677318 -1.04052e+06 -439846 -450167 -474034 -521092 -619563 -865804
          -428139 -436009 -453210 -483062 -530145 -588282 -417887 -423561 -435235 -453219 -476335 -497481
          -410422 -414612 -422836 -434492 -447816 -458940 -406524 -409995 -416635 -425652 -435456 -443577
          -502733 -511993 -530449 -557608 -591851 -629296 -503685 -513932 -534706 -566188 -607776 -656804
          -504614 -516536 -541429 -581191 -638578 -718460 -503882 -517456 -546663 -596052 -675093 -813170
          -500061 -514439 -545781 -600105 -690054 -845158 -492986 -507573 -539832 -597129 -693675 -850276
          -483129 -497580 -530417 -591941 -704228 -896542 -471046 -484711 -516723 -581059 -715928 -996754
          -457507 -469198 -496537 -551909 -675101 -1.02742e+06 -443952 -452825 -472449 -507374 -565121 -641609
          -432221 -438568 -451739 -472366 -499587 -525152 -423746 -428396 -437572 -450696 -465882 -478623
          -419340 -423173 -430530 -440573 -451550 -460630 -529279 -540095 -561458 -592202 -629637 -670095
          -530572 -542750 -567195 -602978 -646838 -696436 -531824 -546370 -576561 -622545 -679505 -751556
          -530657 -547401 -583576 -642218 -716606 -827739 -524966 -541931 -578701 -640038 -730613 -873345
          -515166 -531502 -567339 -629752 -732057 -898747 -502425 -517919 -552806 -617341 -734652 -940303
          -487732 -501931 -534828 -600063 -737725 -1.05559e+06 -472074 -484014 -511586 -566274 -684807 -1.01779e+06
          -456934 -465955 -485711 -520301 -576316 -649396 -444094 -450564 -463904 -484591 -511583 -536885
          -434919 -439684 -449057 -462401 -477786 -490776 -430175 -434120 -441681 -451989 -463261 -472663
        </DataArray>
        <DataArray type="Float32" Name="saturation" NumberOfComponents="1" format="ascii">
          0.762313 0.762201 0.76199 0.761701 0.761369 0.761031 0.762352 0.762239 0.762025 0.761734 0.761397 0.761055
          0.762434 0.762319 0.762102 0.761805 0.761463 0.761114 0.762561 0.762446 0.762227 0.761928 0.761582 0.761229
          0.762737 0.762623 0.762406 0.76211 0.761768 0.761419 0.762959 0.762849 0.76264 0.762354 0.762025 0.76169
          0.76322 0.763116 0.762919 0.762651 0.762343 0.762031 0.763504 0.763408 0.763227 0.762981 0.762699 0.762415
          0.763792 0.763704 0.76354 0.763318 0.763065 0.762809 0.76406 0.763981 0.763834 0.763634 0.763406 0.763177
          0.764286 0.764214 0.764081 0.7639 0.763694 0.763485 0.764449 0.764383 0.764259 0.764092 0.763901 0.763707
          0.764534 0.764471 0.764353 0.764193 0.76401 0.763823 0.761949 0.761825 0.76159 0.761271 0.760902 0.76053
          0.761986 0.761861 0.761622 0.761297 0.760921 0.760541 0.762065 0.761937 0.761693 0.76136 0.760973 0.760579
          0.762191 0.762061 0.761814 0.761474 0.761079 0.760675 0.762369 0.76224 0.761994 0.761655 0.761261 0.760859
          0.762597 0.762472 0.762234 0.761907 0.761528 0.761143 0.762867 0.76275 0.762526 0.76222 0.761868 0.761514
          0.763165 0.763057 0.762852 0.762574 0.762256 0.761937 0.763468 0.763371 0.763187 0.762938 0.762655 0.762373
          0.763753 0.763666 0.763502 0.763281 0.763031 0.762781 0.763993 0.763915 0.763768 0.763571 0.763347 0.763123
          0.764167 0.764095 0.763961 0.76378 0.763575 0.763369 0.764258 0.76419 0.764062 0.76389 0.763694 0.763497
          0.76123 0.761082 0.7608 0.760414 0.759969 0.759522 0.761264 0.761112 0.760823 0.760426 0.759966 0.759501
          0.761338 0.761181 0.760881 0.760467 0.759982 0.759488 0.761462 0.761301 0.760992 0.760562 0.760055 0.759533
          0.761642 0.761481 0.76117 0.760737 0.760226 0.759697 0.761881 0.761724 0.761423 0.761005 0.760514 0.760012
          0.762171 0.762024 0.761741 0.761353 0.760903 0.76045 0.762496 0.762361 0.762105 0.761756 0.761356 0.76096
          0.762832 0.762711 0.762484 0.762177 0.76183 0.761489 0.763149 0.763043 0.762845 0.762578 0.762278 0.761984
          0.763419 0.763326 0.763152 0.762918 0.762657 0.7624 0.763616 0.763532 0.763375 0.763165 0.76293 0.762698
          0.763719 0.76364 0.763492 0.763294 0.763073 0.762853 0.760168 0.759981 0.759623 0.75913 0.75856 0.757989
          0.760196 0.760002 0.759631 0.759116 0.758513 0.757904 0.760261 0.760058 0.759664 0.759113 0.758456 0.757779
          0.760379 0.760166 0.759754 0.759168 0.75846 0.75771 0.760563 0.760347 0.759927 0.75933 0.758603 0.757822
          0.760817 0.760606 0.760197 0.75962 0.758926 0.758197 0.761137 0.760938 0.760556 0.760023 0.759396 0.758761
          0.761502 0.761322 0.760977 0.760503 0.759958 0.759423 0.761887 0.761729 0.761428 0.761019 0.760557 0.760115
          0.762257 0.76212 0.761862 0.761516 0.761131 0.760764 0.762574 0.762456 0.762236 0.761942 0.761616 0.761307
          0.762806 0.762702 0.762508 0.762251 0.761967 0.761694 0.762928 0.762831 0.762652 0.762413 0.762149 0.761895
          0.758781 0.758538 0.758072 0.757425 0.756668 0.755911 0.758799 0.758545 0.758054 0.757363 0.756542 0.755704
          0.758851 0.758579 0.758046 0.757283 0.756349 0.755358 0.758958 0.758669 0.758098 0.757264 0.756214 0.755043
          0.759144 0.758847 0.758258 0.757396 0.756296 0.755033 0.759418 0.759125 0.758549 0.757714 0.756674 0.75553
          0.759775 0.759498 0.758959 0.758191 0.757265 0.756312 0.760196 0.759945 0.75946 0.75878 0.757987 0.757215
          0.760649 0.760431 0.760012 0.759436 0.758783 0.758172 0.761091 0.760906 0.760557 0.760084 0.759559 0.759077
          0.761474 0.76132 0.761029 0.760642 0.760218 0.759828 0.761756 0.761623 0.761375 0.761048 0.76069 0.760359
          0.761905 0.761784 0.761558 0.76126 0.760935 0.760632 0.7571 0.756786 0.756176 0.755319 0.754306 0.753287
          0.757105 0.756771 0.756118 0.755181 0.754044 0.752863 0.757136 0.756771 0.756044 0.754972 0.753607 0.752099
          0.757228 0.756833 0.756035 0.754826 0.753213 0.751274 0.757413 0.757002 0.756171 0.754904 0.753187 0.751008
          0.757709 0.757301 0.756481 0.755254 0.753651 0.751772 0.758111 0.757723 0.756948 0.755812 0.754393 0.752894
          0.758601 0.758247 0.757546 0.756533 0.755309 0.754116 0.759142 0.758835 0.758236 0.757391 0.756411 0.755513
          0.759679 0.759425 0.758936 0.758266 0.757516 0.756851 0.76015 0.759943 0.759551 0.759025 0.758451 0.757944
          0.760498 0.760325 0.760002 0.759574 0.759113 0.758701 0.760683 0.760527 0.760239 0.75986 0.759452 0.759085
          0.755172 0.754771 0.753987 0.752869 0.751526 0.750165 0.75516 0.754728 0.753873 0.752618 0.751048 0.749383
          0.755165 0.754684 0.753706 0.752209 0.750201 0.747859 0.755237 0.754705 0.753606 0.751859 0.749341 0.746005
          0.755421 0.754862 0.753706 0.751865 0.749188 0.745392 0.75574 0.75518 0.75403 0.752241 0.749781 0.746713
          0.756194 0.755653 0.754547 0.752853 0.750626 0.748196 0.756765 0.756264 0.755244 0.753689 0.751667 0.749597
          0.757412 0.75698 0.756112 0.754832 0.753263 0.751816 0.758067 0.757716 0.757027 0.756053 0.754932 0.75396
          0.758647 0.758369 0.757837 0.757112 0.756315 0.755634 0.759078 0.758853 0.75843 0.757868 0.757264 0.756744
          0.759306 0.759109 0.75874 0.758256 0.757741 0.757292 0.753059 0.752563 0.751588 0.750177 0.748452 0.746687
          0.753028 0.752489 0.751405 0.749779 0.747674 0.745373 0.753005 0.752392 0.751122 0.749096 0.746183 0.742515
          0.753056 0.752368 0.750908 0.748449 0.74449 0.738333 0.753241 0.752512 0.750967 0.748398 0.744402 0.738356
          0.75359 0.752849 0.751295 0.748782 0.745147 0.740462 0.754102 0.753372 0.751834 0.749349 0.745812 0.741709
          0.754763 0.754074 0.752612 0.750191 0.746538 0.741876 0.755533 0.754937 0.753697 0.751731 0.749047 0.746317
          0.756326 0.755851 0.754893 0.753471 0.751733 0.750201 0.757034 0.756669 0.755957 0.754961 0.753836 0.752898
          0.75756 0.757274 0.756729 0.755997 0.755207 0.754549 0.75784 0.757593 0.75713 0.756521 0.755875 0.75533
          0.750835 0.750247 0.749086 0.747396 0.745307 0.743141 0.750787 0.750142 0.74884 0.746859 0.744222 0.741217
          0.75074 0.749998 0.748445 0.745894 0.741951 0.736232 0.750777 0.749936 0.748119 0.744895 0.738812 0.723788
          0.750975 0.750076 0.748145 0.74483 0.739308 0.729861 0.751365 0.750441 0.748467 0.745174 0.740176 0.733412
          0.751948 0.751017 0.749001 0.745553 0.740123 0.732795 0.752711 0.751814 0.749827 0.746193 0.739296 0.723118
          0.753614 0.752835 0.751143 0.748217 0.743528 0.737318 0.754556 0.753943 0.752668 0.750659 0.747967 0.745365
          0.7554 0.754941 0.754027 0.752702 0.751141 0.749825 0.756029 0.755677 0.755002 0.75408 0.75307 0.752244
          0.756361 0.756064 0.755504 0.75476 0.753972 0.753322 0.748577 0.747907 0.746589 0.744688 0.742358 0.739942
          0.748514 0.747778 0.746302 0.744095 0.741226 0.738014 0.748452 0.747602 0.745848 0.743062 0.739023 0.733693
          0.748491 0.747525 0.745478 0.742034 0.736425 0.727131 0.748725 0.747687 0.745476 0.741776 0.735964 0.727165
          0.749186 0.748107 0.745801 0.741951 0.736121 0.728324 0.749867 0.748768 0.746366 0.74218 0.735423 0.726034
          0.75075 0.74968 0.747267 0.742732 0.734003 0.715916 0.751792 0.750854 0.748756 0.744883 0.737722 0.723682
          0.75288 0.752146 0.750581 0.747987 0.744175 0.739875 0.753854 0.753312 0.752217 0.75058 0.748558 0.746785
          0.754577 0.75417 0.753381 0.752286 0.751066 0.750071 0.754959 0.754619 0.753975 0.753114 0.752197 0.75145
          0.746355 0.745607 0.744151 0.742092 0.739624 0.737073 0.746277 0.745452 0.743822 0.741461 0.738521 0.735288
          0.746202 0.745244 0.743308 0.740378 0.736463 0.731532 0.746261 0.745171 0.742911 0.73933 0.73414 0.726326
          0.746573 0.745411 0.742977 0.739049 0.733223 0.7247 0.747156 0.745962 0.743429 0.739256 0.733004 0.724445
          0.747981 0.746777 0.744154 0.739618 0.732371 0.722209 0.749013 0.747847 0.745229 0.740387 0.731681 0.717732
          0.750198 0.749173 0.746862 0.742517 0.73414 0.716451 0.751416 0.750615 0.748892 0.745978 0.741539 0.736265
          0.752497 0.751909 0.750712 0.748899 0.746612 0.744564 0.753295 0.752856 0.752001 0.750806 0.749461 0.748363
          0.753715 0.753349 0.752655 0.751725 0.750729 0.749922 0.744242 0.743409 0.741808 0.7396 0.73705 0.734451
          0.744142 0.743207 0.741387 0.738851 0.735927 0.732838 0.744045 0.742933 0.740709 0.737522 0.733868 0.729642
          0.744135 0.742855 0.740208 0.736226 0.731641 0.725578 0.744579 0.743269 0.740556 0.736368 0.730829 0.723316
          0.745353 0.74407 0.741377 0.737043 0.730746 0.722106 0.74638 0.745134 0.74245 0.737872 0.730597 0.720196
          0.747594 0.74642 0.743813 0.739052 0.730422 0.715308 0.748924 0.747906 0.745639 0.741455 0.733543 0.716849
          0.750249 0.749455 0.747763 0.744946 0.740727 0.735762 0.751403 0.750818 0.749634 0.747858 0.74564 0.743655
          0.752246 0.751807 0.750954 0.749766 0.748434 0.74734 0.752689 0.752321 0.751624 0.75069 0.749691 0.748873
        </DataArray>
        <DataArray type="Float32" Name="process rank" NumberOfComponents="1" format="ascii">
          0 0 0 0 0 0 0 0 0 0 0 0
          0 0 0 0 0 0 0 0 0 0 0 0
          0 0 0 0 0 0 0 0 0 0 0 0
          0 0 0 0 0 0 0 0 0 0 0 0
          0 0 0 0 0 0 0 0 0 0 0 0
          0 0 0 0 0 0 0 0 0 0 0 0
          0 0 0 0 0 0 0 0 0 0 0 0
          0 0 0 0 0 0 0 0 0 0 0 0
          0 0 0 0 0 0 0 0 0 0 0 0
          0 0 0 0 0 0 0 0 0 0 0 0
          0 0 0 0 0 0 0 0 0 0 0 0
          0 0 0 0 0 0 0 0 0 0 0 0
          0 0 0 0 0 0 0 0 0 0 0 0
          0 0 0 0 0 0 0 0 0 0 0 0
          0 0 0 0 0 0 0 0 0 0 0 0
          0 0 0 0 0 0 0 0 0 0 0 0
          0 0 0 0 0 0 0 0 0 0 0 0
          0 0 0 0 0 0 0 0 0 0 0 0
          0 0 0 0 0 0 0 0 0 0 0 0
          0 0 0 0 0 0 0 0 0 0 0 0
          0 0 0 0 0 0 0 0 0 0 0 0
          0 0 0 0 0 0 0 0 0 0 0 0
          0 0 0 0 0 0 0 0 0 0 0 0
          0 0 0 0 0 0 0 0 0 0 0 0
          0 0 0 0 0 0 0 0 0 0 0 0
          0 0 0 0 0 0 0 0 0 0 0 0
          0 0 0 0 0 0 0 0 0 0 0 0
          0 0 0 0 0 0 0 0 0 0 0 0
          0 0 0 0 0 0 0 0 0 0 0 0
          0 0 0 0 0 0 0 0 0 0 0 0
          0 0 0 0 0 0 0 0 0 0 0 0
          0 0 0 0 0 0 0 0 0 0 0 0
          0 0 0 0 0 0 0 0 0 0 0 0
          0 0 0 0 0 0 0 0 0 0 0 0
          0 0 0 0 0 0 0 0 0 0 0 0
          0 0 0 0 0 0 0 0 0 0 0 0
          0 0 0 0 0 0 0 0 0 0 0 0
          0 0 0 0 0 0 0 0 0 0 0 0
          0 0 0 0 0 0 0 0 0 0 0 0
          0 0 0 0 0 0 0 0 0 0 0 0
          0 0 0 0 0 0 0 0 0 0 0 0
          0 0 0 0 0 0 0 0 0 0 0 0
          0 0 0 0 0 0 0 0 0 0 0 0
          0 0 0 0 0 0 0 0 0 0 0 0
          0 0 0 0 0 0 0 0 0 0 0 0
          0 0 0 0 0 0 0 0 0 0 0 0
          0 0 0 0 0 0 0 0 0 0 0 0
          0 0 0 0 0 0 0 0 0 0 0 0
          0 0 0 0 0 0 0 0 0 0 0 0
          0 0 0 0 0 0 0 0 0 0 0 0
          0 0 0 0 0 0 0 0 0 0 0 0
          0 0 0 0 0 0 0 0 0 0 0 0
          0 0 0 0 0 0 0 0 0 0 0 0
          0 0 0 0 0 0 0 0 0 0 0 0
          0 0 0 0 0 0 0 0 0 0 0 0
          0 0 0 0 0 0 0 0 0 0 0 0
          0 0 0 0 0 0 0 0 0 0 0 0
          0 0 0 0 0 0 0 0 0 0 0 0
          0 0 0 0 0 0 0 0 0 0 0 0
          0 0 0 0 0 0 0 0 0 0 0 0
          0 0 0 0 0 0 0 0 0 0 0 0
          0 0 0 0 0 0 0 0 0 0 0 0
          0 0 0 0 0 0 0 0 0 0 0 0
          0 0 0 0 0 0 0 0 0 0 0 0
          0 0 0 0 0 0 0 0 0 0 0 0
          0 0 0 0 0 0 0 0 0 0 0 0
          0 0 0 0 0 0 0 0 0 0 0 0
          0 0 0 0 0 0 0 0 0 0 0 0
          0 0 0 0 0 0 0 0 0 0 0 0
          0 0 0 0 0 0 0 0 0 0 0 0
          0 0 0 0 0 0 0 0 0 0 0 0
          0 0 0 0 0 0 0 0 0 0 0 0
          0 0 0 0 0 0 0 0 0 0 0 0
          0 0 0 0 0 0 0 0 0 0 0 0
          0 0 0 0 0 0 0 0 0 0 0 0
          0 0 0 0 0 0 0 0 0 0 0 0
          0 0 0 0 0 0 0 0 0 0 0 0
          0 0 0 0 0 0 0 0 0 0 0 0
        </DataArray>
      </CellData>
      <Points>
        <DataArray type="Float32" Name="Coordinates" NumberOfComponents="3" format="ascii">
          -0.04 -0.04 -0.15 -0.0338462 -0.04 -0.15 -0.04 -0.0338462 -0.15 -0.0338462 -0.0338462 -0.15
          -0.04 -0.04 -0.144 -0.0338462 -0.04 -0.144 -0.04 -0.0338462 -0.144 -0.0338462 -0.0338462 -0.144
          -0.0276923 -0.04 -0.15 -0.0276923 -0.0338462 -0.15 -0.0276923 -0.04 -0.144 -0.0276923 -0.0338462 -0.144
          -0.0215385 -0.04 -0.15 -0.0215385 -0.0338462 -0.15 -0.0215385 -0.04 -0.144 -0.0215385 -0.0338462 -0.144
          -0.0153846 -0.04 -0.15 -0.0153846 -0.0338462 -0.15 -0.0153846 -0.04 -0.144 -0.0153846 -0.0338462 -0.144
          -0.00923077 -0.04 -0.15 -0.00923077 -0.0338462 -0.15 -0.00923077 -0.04 -0.144 -0.00923077 -0.0338462 -0.144
          -0.00307692 -0.04 -0.15 -0.00307692 -0.0338462 -0.15 -0.00307692 -0.04 -0.144 -0.00307692 -0.0338462 -0.144
          -0.04 -0.0276923 -0.15 -0.0338462 -0.0276923 -0.15 -0.04 -0.0276923 -0.144 -0.0338462 -0.0276923 -0.144
          -0.0276923 -0.0276923 -0.15 -0.0276923 -0.0276923 -0.144 -0.0215385 -0.0276923 -0.15 -0.0215385 -0.0276923 -0.144
          -0.0153846 -0.0276923 -0.15 -0.0153846 -0.0276923 -0.144 -0.00923077 -0.0276923 -0.15 -0.00923077 -0.0276923 -0.144
          -0.00307692 -0.0276923 -0.15 -0.00307692 -0.0276923 -0.144 -0.04 -0.0215385 -0.15 -0.0338462 -0.0215385 -0.15
          -0.04 -0.0215385 -0.144 -0.0338462 -0.0215385 -0.144 -0.0276923 -0.0215385 -0.15 -0.0276923 -0.0215385 -0.144
          -0.0215385 -0.0215385 -0.15 -0.0215385 -0.0215385 -0.144 -0.0153846 -0.0215385 -0.15 -0.0153846 -0.0215385 -0.144
          -0.00923077 -0.0215385 -0.15 -0.00923077 -0.0215385 -0.144 -0.00307692 -0.0215385 -0.15 -0.00307692 -0.0215385 -0.144
          -0.04 -0.0153846 -0.15 -0.0338462 -0.0153846 -0.15 -0.04 -0.0153846 -0.144 -0.0338462 -0.0153846 -0.144
          -0.0276923 -0.0153846 -0.15 -0.0276923 -0.0153846 -0.144 -0.0215385 -0.0153846 -0.15 -0.0215385 -0.0153846 -0.144
          -0.0153846 -0.0153846 -0.15 -0.0153846 -0.0153846 -0.144 -0.00923077 -0.0153846 -0.15 -0.00923077 -0.0153846 -0.144
          -0.00307692 -0.0153846 -0.15 -0.00307692 -0.0153846 -0.144 -0.04 -0.00923077 -0.15 -0.0338462 -0.00923077 -0.15
          -0.04 -0.00923077 -0.144 -0.0338462 -0.00923077 -0.144 -0.0276923 -0.00923077 -0.15 -0.0276923 -0.00923077 -0.144
          -0.0215385 -0.00923077 -0.15 -0.0215385 -0.00923077 -0.144 -0.0153846 -0.00923077 -0.15 -0.0153846 -0.00923077 -0.144
          -0.00923077 -0.00923077 -0.15 -0.00923077 -0.00923077 -0.144 -0.00307692 -0.00923077 -0.15 -0.00307692 -0.00923077 -0.144
          -0.04 -0.00307692 -0.15 -0.0338462 -0.00307692 -0.15 -0.04 -0.00307692 -0.144 -0.0338462 -0.00307692 -0.144
          -0.0276923 -0.00307692 -0.15 -0.0276923 -0.00307692 -0.144 -0.0215385 -0.00307692 -0.15 -0.0215385 -0.00307692 -0.144
          -0.0153846 -0.00307692 -0.15 -0.0153846 -0.00307692 -0.144 -0.00923077 -0.00307692 -0.15 -0.00923077 -0.00307692 -0.144
          -0.00307692 -0.00307692 -0.15 -0.00307692 -0.00307692 -0.144 -0.04 0.00307692 -0.15 -0.0338462 0.00307692 -0.15
          -0.04 0.00307692 -0.144 -0.0338462 0.00307692 -0.144 -0.0276923 0.00307692 -0.15 -0.0276923 0.00307692 -0.144
          -0.0215385 0.00307692 -0.15 -0.0215385 0.00307692 -0.144 -0.0153846 0.00307692 -0.15 -0.0153846 0.00307692 -0.144
          -0.00923077 0.00307692 -0.15 -0.00923077 0.00307692 -0.144 -0.00307692 0.00307692 -0.15 -0.00307692 0.00307692 -0.144
          -0.04 0.00923077 -0.15 -0.0338462 0.00923077 -0.15 -0.04 0.00923077 -0.144 -0.0338462 0.00923077 -0.144
          -0.0276923 0.00923077 -0.15 -0.0276923 0.00923077 -0.144 -0.0215385 0.00923077 -0.15 -0.0215385 0.00923077 -0.144
          -0.0153846 0.00923077 -0.15 -0.0153846 0.00923077 -0.144 -0.00923077 0.00923077 -0.15 -0.00923077 0.00923077 -0.144
          -0.00307692 0.00923077 -0.15 -0.00307692 0.00923077 -0.144 -0.04 0.0153846 -0.15 -0.0338462 0.0153846 -0.15
          -0.04 0.0153846 -0.144 -0.0338462 0.0153846 -0.144 -0.0276923 0.0153846 -0.15 -0.0276923 0.0153846 -0.144
          -0.0215385 0.0153846 -0.15 -0.0215385 0.0153846 -0.144 -0.0153846 0.0153846 -0.15 -0.0153846 0.0153846 -0.144
          -0.00923077 0.0153846 -0.15 -0.00923077 0.0153846 -0.144 -0.00307692 0.0153846 -0.15 -0.00307692 0.0153846 -0.144
          -0.04 0.0215385 -0.15 -0.0338462 0.0215385 -0.15 -0.04 0.0215385 -0.144 -0.0338462 0.0215385 -0.144
          -0.0276923 0.0215385 -0.15 -0.0276923 0.0215385 -0.144 -0.0215385 0.0215385 -0.15 -0.0215385 0.0215385 -0.144
          -0.0153846 0.0215385 -0.15 -0.0153846 0.0215385 -0.144 -0.00923077 0.0215385 -0.15 -0.00923077 0.0215385 -0.144
          -0.00307692 0.0215385 -0.15 -0.00307692 0.0215385 -0.144 -0.04 0.0276923 -0.15 -0.0338462 0.0276923 -0.15
          -0.04 0.0276923 -0.144 -0.0338462 0.0276923 -0.144 -0.0276923 0.0276923 -0.15 -0.0276923 0.0276923 -0.144
          -0.0215385 0.0276923 -0.15 -0.0215385 0.0276923 -0.144 -0.0153846 0.0276923 -0.15 -0.0153846 0.0276923 -0.144
          -0.00923077 0.0276923 -0.15 -0.00923077 0.0276923 -0.144 -0.00307692 0.0276923 -0.15 -0.00307692 0.0276923 -0.144
          -0.04 0.0338462 -0.15 -0.0338462 0.0338462 -0.15 -0.04 0.0338462 -0.144 -0.0338462 0.0338462 -0.144
          -0.0276923 0.0338462 -0.15 -0.0276923 0.0338462 -0.144 -0.0215385 0.0338462 -0.15 -0.0215385 0.0338462 -0.144
          -0.0153846 0.0338462 -0.15 -0.0153846 0.0338462 -0.144 -0.00923077 0.0338462 -0.15 -0.00923077 0.0338462 -0.144
          -0.00307692 0.0338462 -0.15 -0.00307692 0.0338462 -0.144 -0.04 0.04 -0.15 -0.0338462 0.04 -0.15
          -0.04 0.04 -0.144 -0.0338462 0.04 -0.144 -0.0276923 0.04 -0.15 -0.0276923 0.04 -0.144
          -0.0215385 0.04 -0.15 -0.0215385 0.04 -0.144 -0.0153846 0.04 -0.15 -0.0153846 0.04 -0.144
          -0.00923077 0.04 -0.15 -0.00923077 0.04 -0.144 -0.00307692 0.04 -0.15 -0.00307692 0.04 -0.144
          -0.04 -0.04 -0.138 -0.0338462 -0.04 -0.138 -0.04 -0.0338462 -0.138 -0.0338462 -0.0338462 -0.138
          -0.0276923 -0.04 -0.138 -0.0276923 -0.0338462 -0.138 -0.0215385 -0.04 -0.138 -0.0215385 -0.0338462 -0.138
          -0.0153846 -0.04 -0.138 -0.0153846 -0.0338462 -0.138 -0.00923077 -0.04 -0.138 -0.00923077 -0.0338462 -0.138
          -0.00307692 -0.04 -0.138 -0.00307692 -0.0338462 -0.138 -0.04 -0.0276923 -0.138 -0.0338462 -0.0276923 -0.138
          -0.0276923 -0.0276923 -0.138 -0.0215385 -0.0276923 -0.138 -0.0153846 -0.0276923 -0.138 -0.00923077 -0.0276923 -0.138
          -0.00307692 -0.0276923 -0.138 -0.04 -0.0215385 -0.138 -0.0338462 -0.0215385 -0.138 -0.0276923 -0.0215385 -0.138
          -0.0215385 -0.0215385 -0.138 -0.0153846 -0.0215385 -0.138 -0.00923077 -0.0215385 -0.138 -0.00307692 -0.0215385 -0.138
          -0.04 -0.0153846 -0.138 -0.0338462 -0.0153846 -0.138 -0.0276923 -0.0153846 -0.138 -0.0215385 -0.0153846 -0.138
          -0.0153846 -0.0153846 -0.138 -0.00923077 -0.0153846 -0.138 -0.00307692 -0.0153846 -0.138 -0.04 -0.00923077 -0.138
          -0.0338462 -0.00923077 -0.138 -0.0276923 -0.00923077 -0.138 -0.0215385 -0.00923077 -0.138 -0.0153846 -0.00923077 -0.138
          -0.00923077 -0.00923077 -0.138 -0.00307692 -0.00923077 -0.138 -0.04 -0.00307692 -0.138 -0.0338462 -0.00307692 -0.138
          -0.0276923 -0.00307692 -0.138 -0.0215385 -0.00307692 -0.138 -0.0153846 -0.00307692 -0.138 -0.00923077 -0.00307692 -0.138
          -0.00307692 -0.00307692 -0.138 -0.04 0.00307692 -0.138 -0.0338462 0.00307692 -0.138 -0.0276923 0.00307692 -0.138
          -0.0215385 0.00307692 -0.138 -0.0153846 0.00307692 -0.138 -0.00923077 0.00307692 -0.138 -0.00307692 0.00307692 -0.138
          -0.04 0.00923077 -0.138 -0.0338462 0.00923077 -0.138 -0.0276923 0.00923077 -0.138 -0.0215385 0.00923077 -0.138
          -0.0153846 0.00923077 -0.138 -0.00923077 0.00923077 -0.138 -0.00307692 0.00923077 -0.138 -0.04 0.0153846 -0.138
          -0.0338462 0.0153846 -0.138 -0.0276923 0.0153846 -0.138 -0.0215385 0.0153846 -0.138 -0.0153846 0.0153846 -0.138
          -0.00923077 0.0153846 -0.138 -0.00307692 0.0153846 -0.138 -0.04 0.0215385 -0.138 -0.0338462 0.0215385 -0.138
          -0.0276923 0.0215385 -0.138 -0.0215385 0.0215385 -0.138 -0.0153846 0.0215385 -0.138 -0.00923077 0.0215385 -0.138
          -0.00307692 0.0215385 -0.138 -0.04 0.0276923 -0.138 -0.0338462 0.0276923 -0.138 -0.0276923 0.0276923 -0.138
          -0.0215385 0.0276923 -0.138 -0.0153846 0.0276923 -0.138 -0.00923077 0.0276923 -0.138 -0.00307692 0.0276923 -0.138
          -0.04 0.0338462 -0.138 -0.0338462 0.0338462 -0.138 -0.0276923 0.0338462 -0.138 -0.0215385 0.0338462 -0.138
          -0.0153846 0.0338462 -0.138 -0.00923077 0.0338462 -0.138 -0.00307692 0.0338462 -0.138 -0.04 0.04 -0.138
          -0.0338462 0.04 -0.138 -0.0276923 0.04 -0.138 -0.0215385 0.04 -0.138 -0.0153846 0.04 -0.138
          -0.00923077 0.04 -0.138 -0.00307692 0.04 -0.138 -0.04 -0.04 -0.132 -0.0338462 -0.04 -0.132
          -0.04 -0.0338462 -0.132 -0.0338462 -0.0338462 -0.132 -0.0276923 -0.04 -0.132 -0.0276923 -0.0338462 -0.132
          -0.0215385 -0.04 -0.132 -0.0215385 -0.0338462 -0.132 -0.0153846 -0.04 -0.132 -0.0153846 -0.0338462 -0.132
          -0.00923077 -0.04 -0.132 -0.00923077 -0.0338462 -0.132 -0.00307692 -0.04 -0.132 -0.00307692 -0.0338462 -0.132