<?xml version="1.0"?>
<VTKFile type="UnstructuredGrid" version="0.1" byte_order="LittleEndian">
  <UnstructuredGrid>
    <Piece NumberOfCells="1183" NumberOfPoints="1568">
      <CellData Scalars="p (Pa)">
        <DataArray type="Float32" Name="p (Pa)" NumberOfComponents="1" format="ascii">
          -751722 -783739 -800958 -798558 -770453 -743023 -727851 -785487 -820082 -831175 -816600 -780122
          -748007 -730742 -860177 -906492 -905524 -862993 -801565 -756787 -734544 -976677 -1.05364e+06 -1.03595e+06
          -939930 -828513 -763307 -734095 -1.07023e+06 -1.06878e+06 -1.10154e+06 -962296 -828946 -754480 -721718 -1.11836e+06
          -1.09445e+06 -1.04678e+06 -920222 -796629 -725414 -693826 -1.07017e+06 -990632 -885980 -804660 -728250 -676808
          -652216 -1.04226e+06 -840030 -748357 -694626 -651351 -620350 -604558 -750778 -688519 -642958 -611706
          -587312 -569615 -560316 -610222 -591000 -570635 -553702 -539934 -529838 -524460 -537882 -532773
          -524060 -515148 -507306 -501404 -498222 -500558 -500179 -496538 -491708 -486993 -483296 -481270
          -484439 -485526 -483779 -480638 -477265 -474518 -472989 -796979 -842626 -885194 -909684 -856314
          -809851 -786748 -830891 -875783 -909630 -914055 -858468 -811484 -787634 -906079 -954082 -979710
          -954023 -871483 -814652 -787227 -1.02295e+06 -1.08077e+06 -1.08611e+06 -1.0617e+06 -891636 -812430 -779148 -1.10428e+06
          -1.06947e+06 -1.08342e+06 -981090 -854290 -785038 -753655 -1.07743e+06 -1.06904e+06 -993724 -879010 -790165 -736703
          -711356 -990506 -921799 -838682 -769404 -714960 -678665 -660606 -817254 -768989 -717337 -676582
          -644346 -621712 -610050 -673847 -654241 -628176 -605265 -586496 -572932 -565795 -584404 -578099
          -566029 -553653 -542866 -534845 -530558 -530946 -530089 -524925 -518411 -512215 -507426 -504821
          -500782 -502031 -500073 -496587 -492862 -489834 -488151 -487132 -489090 -488383 -486171 -483520
          -481265 -479987 -836962 -900652 -985251 -1.07377e+06 -959211 -879580 -845566 -871808 -930189 -996340
          -1.04667e+06 -948193 -878418 -845728 -950888 -994897 -1.02786e+06 -1.01552e+06 -936245 -875964 -843318 -1.0789e+06
          -1.09417e+06 -1.08573e+06 -1.02624e+06 -928193 -866551 -830460 -1.09309e+06 -1.07362e+06 -1.06132e+06 -961702 -877961 -824860
          -792363 -998958 -1.0101e+06 -933313 -854333 -794704 -755111 -732746 -844129 -838470 -794337 -748481
          -711048 -684693 -670410 -719234 -713044 -688915 -662833 -640281 -623772 -614905 -627154 -624916
          -612646 -598091 -584805 -574781 -569370 -564122 -564640 -559011 -551166 -543489 -537499 -534224
          -523102 -525015 -522906 -518858 -514467 -510880 -508881 -498568 -501077 -500714 -498675 -496082
          -493829 -492539 -487096 -489812 -490161 -488984 -487181 -485519 -484544 -862901 -937875 -1.02948e+06
          -1.09677e+06 -1.00736e+06 -931420 -894766 -896390 -973267 -1.0674e+06 -1.08309e+06 -1.01735e+06 -938519 -898761 -964435
          -1.02947e+06 -1.0824e+06 -1.07943e+06 -1.00579e+06 -945642 -902400 -1.06327e+06 -1.10168e+06 -1.09428e+06 -1.0491e+06 -993012 -952333
          -895751 -1.08274e+06 -1.07012e+06 -1.04926e+06 -980464 -936454 -900014 -845721 -936316 -949837 -903798 -853698
          -816297 -786078 -759562 -783096 -790672 -768444 -739820 -714545 -694450 -681228 -675970 -680625
          -670022 -654133 -638651 -626297 -619046 -601665 -605490 -600697 -592072 -583004 -575631 -571446
          -550505 -554076 -552407 -547965 -542823 -538495 -536034 -516407 -519840 -519853 -517785 -514954
          -512426 -510958 -495537 -498866 -499734 -498937 -497375 -495843 -494923 -485629 -488897 -490122
          -489874 -488872 -487783 -487105 -874728 -955508 -1.04672e+06 -1.08557e+06 -1.02787e+06 -963329 -927212 -908638
          -1.00148e+06 -1.11167e+06 -1.10745e+06 -1.06007e+06 -982269 -936662 -971496 -1.05991e+06 -1.08248e+06 -1.13988e+06 -1.07477e+06 -1.01527e+06
          -951492 -1.05047e+06 -1.12127e+06 -1.14007e+06 -1.11865e+06 -1.09493e+06 -1.0746e+06 -962878 -1.06961e+06 -1.07441e+06 -1.08464e+06 -1.05046e+06
          -1.06209e+06 -1.05125e+06 -904924 -918492 -932610 -906044 -874876 -853196 -824976 -783015 -762518 -771240
          -758774 -739826 -721297 -703321 -688558 -657148 -664142 -659379 -649121 -637698 -627467 -620816
          -587922 -593688 -592481 -587325 -580899 -575169 -571716 -541679 -546514 -547001 -544714 -541299
          -538125 -536229 -511151 -515349 -516663 -515956 -514268 -512537 -511474 -492458 -496268 -497974
          -498095 -497337 -496383 -495763 -483559 -487185 -489048 -489522 -489170 -488557 -488129 -872079
          -946256 -1.0198e+06 -1.05417e+06 -1.02963e+06 -972529 -936704 -907133 -991419 -1.08418e+06 -1.11624e+06 -1.07958e+06 -994728
          -945465 -978344 -1.06724e+06 -1.13962e+06 -1.16569e+06 -1.10602e+06 -1.01299e+06 -950479 -1.07779e+06 -1.13777e+06 -1.08548e+06 -1.16827e+06
          -1.11118e+06 -1.02128e+06 -938415 -1.11107e+06 -1.07376e+06 -1.09502e+06 -1.08561e+06 -1.06982e+06 -963316 -877196 -964335 -942396
          -919583 -892507 -858512 -808702 -772777 -766644 -767072 -755828 -739038 -719197 -698135 -683979
          -649902 -655902 -652713 -644425 -634055 -624143 -617903 -580114 -586253 -586458 -582893 -577692
          -572732 -569696 -535710 -541014 -542543 -541417 -538979 -536481 -534934 -507028 -511584 -513618
          -513732 -512767 -511557 -510766 -489615 -493682 -495902 -496625 -496416 -495870 -495464 -481346
          -485179 -487458 -488432 -488544 -488281 -488038 -859134 -925048 -985134 -1.02235e+06 -1.02031e+06 -960451
          -923303 -894388 -968204 -1.04228e+06 -1.09488e+06 -1.09029e+06 -986978 -929697 -972073 -1.05191e+06 -1.13443e+06 -1.15809e+06
          -1.10703e+06 -987664 -922829 -1.09355e+06 -1.14806e+06 -1.18585e+06 -1.17555e+06 -1.06235e+06 -951039 -891354 -1.07821e+06 -1.07078e+06
          -1.0777e+06 -1.08539e+06 -979768 -881040 -830236 -1.02834e+06 -949135 -910491 -874188 -820656 -773509 -747123
          -768964 -761784 -747038 -727649 -704266 -683425 -671238 -643512 -648793 -645448 -637088 -626466
          -616824 -611103 -574051 -580327 -580977 -577901 -573093 -568494 -565720 -531097 -536599 -538575
          -537960 -535974 -533820 -532469 -503666 -508381 -510771 -511309 -510734 -509818 -509186 -487091
          -491280 -493780 -494848 -494966 -494668 -494396 -479235 -483171 -485691 -486967 -487370 -487331
          -487209 -839752 -898287 -944295 -966881 -954366 -913800 -887455 -872522 -940418 -995842 -1.02388e+06
          -995034 -925842 -888060 -945198 -1.0296e+06 -1.0926e+06 -1.08005e+06 -1.01907e+06 -922114 -876129 -1.05962e+06 -1.13923e+06
          -1.10074e+06 -1.09149e+06 -979117 -885253 -842286 -1.06955e+06 -1.06879e+06 -1.06655e+06 -992427 -890143 -820404 -787204
          -905857 -908516 -874437 -827837 -777290 -739472 -719903 -733964 -741839 -729448 -708349 -685057
          -666265 -655971 -630871 -638983 -636375 -627707 -617002 -607796 -602560 -567782 -574661 -575587
          -572542 -567778 -563335 -560715 -527206 -532869 -535010 -534523 -532657 -530626 -529360 -500920
          -505700 -508223 -508911 -508482 -507687 -507124 -484959 -489191 -491807 -493025 -493291 -493111
          -492904 -477384 -481355 -483984 -485405 -485954 -486030 -485972 -818602 -870417 -901584 -907492
          -890337 -863405 -846062 -847496 -910929 -942774 -939939 -906342 -865916 -842896 -907131 -1.00074e+06
          -1.02719e+06 -990960 -917478 -858381 -829321 -980214 -1.09045e+06 -1.07757e+06 -998874 -893327 -828447 -798888
          -972889 -1.0678e+06 -1.01428e+06 -909677 -826863 -775944 -752117 -834948 -876534 -842006 -789329 -743386
          -712015 -696397 -708348 -725628 -714143 -691198 -668164 -650852 -641750 -621366 -631473 -628865
          -619322 -608216 -599157 -594178 -563366 -570615 -571362 -567872 -562798 -558268 -555667 -524529
          -530235 -532255 -531567 -529547 -527449 -526169 -498957 -503726 -506199 -506820 -506343 -505528
          -504965 -483340 -487558 -490168 -491384 -491658 -491492 -491296 -475915 -479876 -482516 -483962
          -484542 -484647 -484606 -800580 -847093 -866122 -861393 -842951 -822489 -810005 -828557 -888908
          -899783 -880725 -849528 -821158 -805336 -884027 -983761 -965648 -909530 -852596 -812079 -791896
          -939030 -1.07683e+06 -1.01968e+06 -914278 -834896 -787376 -765412 -935873 -1.06808e+06 -972767 -860165 -787218
          -745117 -725815 -820922 -869384 -825496 -766385 -720973 -692134 -678288 -705691 -723446 -707654
          -680670 -656191 -638992 -630286 -620966 -630690 -625849 -614053 -601674 -592182 -587144 -562879
          -569822 -569480 -564829 -558962 -554042 -551308 -523736 -529264 -530778 -529526 -527078 -524733
          -523352 -498002 -502673 -504915 -505275 -504586 -503640 -503018 -482336 -486497 -489000 -490097
          -490272 -490043 -489817 -474906 -478826 -481407 -482789 -483317 -483388 -483332 -787044 -830398
          -840737 -829872 -810826 -793159 -782967 -818516 -883291 -874677 -845290 -814545 -790710 -777999
          -887217 -1.04085e+06 -946801 -869647 -815848 -781864 -765439 -949370 -1.07854e+06 -999593 -878144 -802875
          -761033 -742200 -970743 -1.06947e+06 -982392 -844424 -766422 -725609 -707762 -873563 -895908 -833761
          -759506 -708823 -679240 -665670 -736218 -741748 -713224 -677730 -649430 -631020 -622081 -633780
          -639351 -628664 -612549 -597830 -587334 -581971 -567537 -573140 -570418 -563739 -556589 -551012
          -548022 -525100 -530165 -530726 -528556 -525451 -522728 -521183 -498087 -502574 -504424 -504369
          -503355 -502205 -501488 -481940 -486013 -488340 -489240 -489251 -488912 -488634 -474351 -478216
          -480695 -481962 -482390 -482391 -482301 -774026 -811543 -820116 -808730 -790482 -774379 -765315
          -801846 -851375 -848040 -821495 -793126 -771686 -760440 -864402 -950573 -908465 -843294 -794225
          -763459 -748747 -960687 -1.06717e+06 -990928 -860767 -785290 -745308 -727735 -1.06543e+06 -1.06688e+06 -1.05734e+06
          -847907 -756514 -714194 -696588 -1.06101e+06 -956930 -860687 -761637 -703109 -671678 -657827 -828398
          -784538 -728128 -679657 -646394 -626328 -616935 -664025 -657631 -635972 -613717 -596137 -584456
          -578689 -577154 -579890 -573417 -564107 -555478 -549180 -545908 -528116 -532417 -531690 -528427
          -524604 -521481 -519765 -498896 -503143 -504520 -504004 -502646 -501286 -500472 -481985 -485962
          -488094 -488784 -488623 -488170 -487837 -474152 -477961 -480332 -481478 -481800 -481728 -481601
          -765539 -799260 -807870 -797564 -780383 -765180 -756644 -788775 -828787 -829859 -808057 -782344
          -762391 -751860 -838668 -893716 -873764 -825206 -782622 -754368 -740613 -916552 -984358 -927642
          -837182 -773783 -737197 -720643 -1.0118e+06 -1.02524e+06 -944179 -820752 -746787 -707888 -691050 -1.0711e+06
          -962072 -844743 -754170 -698531 -667703 -653980 -1.05572e+06 -834958 -737201 -680186 -644798 -624057
          -614454 -707703 -677544 -642382 -615017 -595544 -583143 -577128 -587669 -586466 -576206 -564786
          -555129 -548362 -544911 -531026 -534528 -532695 -528618 -524305 -520923 -519098 -499725 -503769
          -504789 -503950 -502366 -500870 -499995 -482173 -486082 -488078 -488628 -488357 -487832 -487464
          -474147 -477920 -480221 -481288 -481542 -481424 -481274
        </DataArray>
        <DataArray type="Float32" Name="saturation" NumberOfComponents="1" format="ascii">
          0.729632 0.727878 0.726963 0.72709 0.728598 0.730121 0.730988 0.727785 0.725969 0.725403 0.726149 0.728073
          0.729841 0.730821 0.723957 0.721743 0.721788 0.723819 0.726932 0.72935 0.730603 0.718593 0.715386 0.716102
          0.720213 0.725538 0.728989 0.730629 0.714725 0.714783 0.713506 0.71922 0.725516 0.729478 0.731343 0.712866
          0.713779 0.715662 0.721108 0.727192 0.731128 0.732995 0.714728 0.717993 0.72271 0.726769 0.730965 0.734034
          0.735581 0.715845 0.724956 0.729821 0.732947 0.735636 0.737669 0.738742 0.729685 0.733316 0.736178 0.738253
          0.739944 0.741211 0.741892 0.738354 0.739684 0.741137 0.742383 0.743422 0.744199 0.744619 0.743578 0.743971
          0.74465 0.745355 0.745984 0.746463 0.746724 0.746532 0.746563 0.746862 0.747262 0.747656 0.747967 0.748138
          0.74787 0.747779 0.747926 0.748192 0.748479 0.748714 0.748845 0.727173 0.724826 0.722747 0.721595 0.724147
          0.726498 0.727717 0.725418 0.723198 0.721597 0.721392 0.724041 0.726414 0.72767 0.721763 0.719582 0.718462
          0.719584 0.723406 0.726249 0.727691 0.716636 0.714311 0.714103 0.715064 0.722441 0.726364 0.728126 0.713401
          0.714756 0.714208 0.718402 0.724247 0.727809 0.729524 0.714442 0.714772 0.717861 0.723043 0.727535 0.73048
          0.731949 0.717998 0.721036 0.725024 0.728655 0.731737 0.73392 0.735047 0.726115 0.728678 0.731598 0.734048
          0.736088 0.737578 0.738366 0.734218 0.735452 0.737147 0.738693 0.740001 0.740971 0.74149 0.740149 0.740599
          0.741473 0.742386 0.743198 0.743812 0.744143 0.744113 0.744179 0.744582 0.745095 0.745589 0.745974 0.746185
          0.746514 0.746412 0.746572 0.746858 0.747166 0.747418 0.747559 0.747644 0.74748 0.747539 0.747725 0.747948
          0.748139 0.748247 0.725111 0.722016 0.718223 0.714586 0.719355 0.723016 0.724679 0.72339 0.720653 0.71775
          0.715667 0.719843 0.723071 0.724671 0.719723 0.717811 0.716433 0.716944 0.720379 0.723189 0.724792 0.714384
          0.71379 0.714117 0.7165 0.720744 0.723645 0.725439 0.713832 0.714592 0.715079 0.719246 0.723093 0.725725
          0.727418 0.717639 0.71717 0.720512 0.724244 0.727294 0.729443 0.730706 0.724751 0.725035 0.727313 0.729814
          0.731967 0.73355 0.734431 0.731487 0.73185 0.733292 0.734907 0.736352 0.73744 0.738036 0.737215 0.737364
          0.738189 0.739189 0.740121 0.740837 0.741229 0.741612 0.741574 0.741988 0.742572 0.743151 0.743608 0.74386
          0.744725 0.744575 0.744741 0.74506 0.745409 0.745696 0.745857 0.746695 0.74649 0.74652 0.746687 0.7469
          0.747086 0.747193 0.747647 0.74742 0.747391 0.747489 0.74764 0.74778 0.747862 0.723823 0.720306 0.716367
          0.71369 0.717285 0.720597 0.722293 0.722216 0.71874 0.714837 0.71422 0.716868 0.720277 0.722105 0.719126
          0.716367 0.714247 0.714363 0.717351 0.719957 0.721934 0.715001 0.713501 0.713786 0.715569 0.717891 0.719659
          0.722247 0.714234 0.71473 0.715562 0.718429 0.72037 0.722046 0.724672 0.720376 0.71977 0.721869 0.724276
          0.726164 0.727753 0.729196 0.727913 0.727508 0.728707 0.730303 0.731762 0.732957 0.733762 0.734086 0.733799
          0.734456 0.735458 0.736458 0.737272 0.737757 0.738941 0.738678 0.739008 0.739609 0.740249 0.740776 0.741078
          0.742622 0.742355 0.742479 0.742813 0.743202 0.743532 0.74372 0.745254 0.744982 0.744981 0.745145 0.74537
          0.745572 0.74569 0.746945 0.746671 0.7466 0.746665 0.746794 0.74692 0.746996 0.74777 0.747496 0.747394
          0.747415 0.747498 0.74759 0.747646 0.723249 0.719519 0.715664 0.714124 0.716433 0.719174 0.720789 0.721643
          0.717532 0.713119 0.71328 0.715129 0.718351 0.72036 0.718817 0.715135 0.714244 0.71206 0.714546 0.716955
          0.719697 0.715513 0.712756 0.712053 0.712855 0.713761 0.714553 0.719194 0.71475 0.714561 0.71416 0.715514
          0.715048 0.715482 0.721816 0.721188 0.720544 0.721764 0.723242 0.724301 0.725719 0.727917 0.729033 0.728555
          0.72924 0.730302 0.731367 0.732425 0.733314 0.735266 0.734824 0.735125 0.73578 0.73652 0.737194 0.737638
          0.739901 0.739495 0.73958 0.739943 0.740399 0.74081 0.741059 0.743289 0.742922 0.742885 0.743058 0.743317
          0.74356 0.743705 0.745674 0.745338 0.745234 0.74529 0.745425 0.745563 0.745648 0.7472 0.746885 0.746744
          0.746734 0.746797 0.746875 0.746926 0.747945 0.74764 0.747484 0.747444 0.747474 0.747525 0.747561 0.723377
          0.71993 0.716766 0.715365 0.716361 0.718772 0.720358 0.721713 0.717959 0.714178 0.712946 0.714358 0.717818
          0.719965 0.718521 0.714844 0.712069 0.711113 0.713335 0.717049 0.719742 0.714428 0.712138 0.714127 0.71102
          0.713138 0.716705 0.720281 0.713142 0.714586 0.713757 0.714122 0.714742 0.719175 0.72313 0.71913 0.720102
          0.721138 0.7224 0.724039 0.726558 0.728471 0.728806 0.728783 0.729403 0.730347 0.731489 0.732735 0.733593
          0.735729 0.735346 0.735549 0.736083 0.736759 0.737416 0.737834 0.740455 0.740018 0.740004 0.740257 0.740628
          0.740985 0.741205 0.743745 0.743339 0.743223 0.743308 0.743495 0.743686 0.743805 0.746006 0.745639 0.745477
          0.745467 0.745545 0.745642 0.745705 0.747436 0.747098 0.746915 0.746855 0.746872 0.746917 0.746951 0.748132
          0.747808 0.747617 0.747535 0.747526 0.747548 0.747568 0.724008 0.720887 0.718228 0.716661 0.716745 0.719301
          0.720967 0.722311 0.718961 0.715844 0.713763 0.71394 0.718149 0.720676 0.718792 0.715456 0.712262 0.71139
          0.713296 0.71812 0.720989 0.713814 0.711757 0.710389 0.710757 0.715038 0.719717 0.722454 0.714411 0.714704
          0.714431 0.714131 0.718459 0.722946 0.725451 0.716414 0.719801 0.721557 0.723275 0.72594 0.728431 0.72989
          0.728679 0.729073 0.729895 0.730999 0.732369 0.733627 0.73438 0.736142 0.735801 0.736016 0.73656 0.737261
          0.737907 0.738294 0.74089 0.74044 0.740393 0.740613 0.740959 0.741293 0.741495 0.744101 0.743677 0.743525
          0.743572 0.743725 0.743891 0.743995 0.746279 0.745897 0.745705 0.745661 0.745708 0.745781 0.745832 0.747648
          0.747298 0.74709 0.747002 0.746992 0.747017 0.747039 0.748311 0.747977 0.747765 0.747658 0.747624 0.747627
          0.747638 0.72497 0.722127 0.720017 0.719019 0.719569 0.721404 0.722639 0.723356 0.720191 0.717771 0.716597
          0.717805 0.720851 0.722611 0.719977 0.716362 0.713851 0.714339 0.716796 0.721022 0.723181 0.715147 0.712084
          0.713537 0.713894 0.718487 0.722744 0.724843 0.714752 0.714782 0.714871 0.717916 0.722512 0.725953 0.727693
          0.721773 0.721649 0.723263 0.725573 0.728226 0.730323 0.731448 0.730636 0.730188 0.730896 0.732127 0.733527
          0.734691 0.735341 0.736969 0.736436 0.736607 0.737178 0.737895 0.73852 0.738879 0.741345 0.740846 0.740779
          0.740999 0.741345 0.74167 0.741863 0.744404 0.743964 0.743799 0.743836 0.74398 0.744138 0.744236 0.746503
          0.746114 0.74591 0.745854 0.745889 0.745953 0.745999 0.747827 0.747472 0.747254 0.747153 0.747131 0.747146
          0.747163 0.748469 0.748131 0.747909 0.747789 0.747743 0.747737 0.747741 0.726046 0.723458 0.721973 0.721697
          0.722502 0.723799 0.724655 0.724583 0.721537 0.720086 0.720213 0.72175 0.723676 0.724813 0.721713 0.717564
          0.716461 0.717979 0.721235 0.724045 0.725497 0.71844 0.713934 0.714436 0.717643 0.722361 0.725542 0.727072
          0.718757 0.714822 0.716996 0.721595 0.725622 0.728299 0.72961 0.725212 0.723162 0.724857 0.727579 0.730101
          0.73191 0.73284 0.732127 0.731116 0.731785 0.733154 0.734572 0.735668 0.736256 0.737601 0.736929 0.737102
          0.737738 0.738491 0.739115 0.739461 0.741668 0.741139 0.741084 0.741338 0.741709 0.742043 0.742236 0.744613
          0.744168 0.744012 0.744065 0.744222 0.744385 0.744485 0.746664 0.746274 0.746073 0.746023 0.746062 0.746128
          0.746173 0.747963 0.747608 0.74739 0.747289 0.747266 0.74728 0.747296 0.748594 0.748257 0.748033 0.747911
          0.747862 0.747853 0.747856 0.726983 0.724603 0.723666 0.723897 0.72481 0.725846 0.72649 0.725536 0.72257
          0.722057 0.722961 0.724482 0.725914 0.726734 0.722803 0.718287 0.719073 0.721602 0.72433 0.726383 0.727443
          0.720254 0.714465 0.716771 0.721382 0.725215 0.727683 0.728874 0.720396 0.71481 0.718762 0.723957 0.727692
          0.730003 0.731105 0.725926 0.723508 0.725692 0.72882 0.731386 0.733097 0.733943 0.732284 0.731242 0.732168
          0.733796 0.735327 0.736436 0.737008 0.737628 0.736981 0.737302 0.738094 0.738941 0.739601 0.739955 0.741703
          0.741196 0.741221 0.74156 0.741992 0.742357 0.742562 0.744675 0.744244 0.744126 0.744223 0.744414 0.744597
          0.744705 0.746742 0.74636 0.746177 0.746148 0.746204 0.746281 0.746332 0.748048 0.747697 0.747488 0.747396
          0.747382 0.747401 0.74742 0.748681 0.748346 0.748127 0.74801 0.747965 0.747959 0.747964 0.727701 0.725443
          0.724921 0.725469 0.726448 0.727375 0.72792 0.72605 0.722838 0.723251 0.724693 0.726255 0.727506 0.728188
          0.722651 0.715902 0.719905 0.723495 0.726188 0.727979 0.728872 0.719791 0.714398 0.717612 0.723085 0.726863
          0.729115 0.730168 0.71885 0.714755 0.718346 0.724736 0.728818 0.731117 0.732162 0.723305 0.722239 0.725272
          0.729199 0.732099 0.733884 0.734728 0.730508 0.730193 0.731839 0.733977 0.73576 0.736959 0.737553 0.736777
          0.736412 0.737115 0.738196 0.739207 0.739942 0.740322 0.741363 0.740956 0.741153 0.74164 0.742168 0.742584
          0.742808 0.744568 0.744174 0.74413 0.744299 0.744541 0.744755 0.744876 0.746735 0.746368 0.746217 0.746222
          0.746304 0.746398 0.746456 0.748081 0.747738 0.747543 0.747468 0.747467 0.747495 0.747518 0.748728 0.748398
          0.748187 0.74808 0.748043 0.748043 0.748051 0.728403 0.72641 0.725968 0.726557 0.727518 0.728384 0.728879
          0.726917 0.724391 0.724556 0.725897 0.727377 0.72853 0.729148 0.72375 0.719737 0.721651 0.724793 0.727319
          0.728981 0.729799 0.71929 0.714847 0.71798 0.723928 0.727795 0.729992 0.730994 0.714916 0.714858 0.715238
          0.724563 0.729365 0.731782 0.732828 0.715091 0.719456 0.723932 0.729082 0.732438 0.734352 0.735223 0.725544
          0.727835 0.730972 0.733858 0.735955 0.73727 0.737899 0.734832 0.735236 0.736633 0.738117 0.739325 0.740146
          0.740557 0.740667 0.740471 0.740936 0.741613 0.74225 0.742721 0.742968 0.744333 0.743999 0.744055 0.744309
          0.744607 0.744853 0.744988 0.746669 0.746321 0.746209 0.746251 0.746362 0.746473 0.746539 0.748078 0.747742
          0.747564 0.747506 0.747519 0.747557 0.747585 0.748745 0.748419 0.748218 0.748121 0.748093 0.748099 0.74811
          0.728867 0.727053 0.726602 0.727142 0.728059 0.728886 0.729358 0.727609 0.725524 0.72547 0.726592 0.727953
          0.72904 0.729625 0.725025 0.722343 0.723296 0.725707 0.727938 0.729485 0.730258 0.721277 0.718261 0.720769
          0.7251 0.728416 0.730452 0.731405 0.717099 0.716541 0.720023 0.725935 0.729909 0.732154 0.733163 0.714691
          0.719229 0.724721 0.729496 0.732712 0.734601 0.735468 0.715303 0.725212 0.730452 0.733826 0.736058 0.737421
          0.738067 0.732165 0.733989 0.736215 0.738029 0.739366 0.740239 0.740669 0.739918 0.740003 0.740735 0.741563
          0.742276 0.742783 0.743043 0.744107 0.743836 0.743977 0.744294 0.744631 0.744897 0.745041 0.746601 0.746271
          0.746188 0.746256 0.746385 0.746507 0.746579 0.748062 0.747732 0.747565 0.747519 0.747542 0.747585 0.747616
          0.748746 0.748423 0.748227 0.748137 0.748115 0.748125 0.748138
        </DataArray>
        <DataArray type="Float32" Name="process rank" NumberOfComponents="1" format="ascii">
          3 3 3 3 3 3 3 3 3 3 3 3
          3 3 3 3 3 3 3 3 3 3 3 3
          3 3 3 3 3 3 3 3 3 3 3 3
          3 3 3 3 3 3 3 3 3 3 3 3
          3 3 3 3 3 3 3 3 3 3 3 3
          3 3 3 3 3 3 3 3 3 3 3 3
          3 3 3 3 3 3 3 3 3 3 3 3
          3 3 3 3 3 3 3 3 3 3 3 3
          3 3 3 3 3 3 3 3 3 3 3 3
          3 3 3 3 3 3 3 3 3 3 3 3
          3 3 3 3 3 3 3 3 3 3 3 3
          3 3 3 3 3 3 3 3 3 3 3 3
          3 3 3 3 3 3 3 3 3 3 3 3
          3 3 3 3 3 3 3 3 3 3 3 3
          3 3 3 3 3 3 3 3 3 3 3 3
          3 3 3 3 3 3 3 3 3 3 3 3
          3 3 3 3 3 3 3 3 3 3 3 3
          3 3 3 3 3 3 3 3 3 3 3 3
          3 3 3 3 3 3 3 3 3 3 3 3
          3 3 3 3 3 3 3 3 3 3 3 3
          3 3 3 3 3 3 3 3 3 3 3 3
          3 3 3 3 3 3 3 3 3 3 3 3
          3 3 3 3 3 3 3 3 3 3 3 3
          3 3 3 3 3 3 3 3 3 3 3 3
          3 3 3 3 3 3 3 3 3 3 3 3
          3 3 3 3 3 3 3 3 3 3 3 3
          3 3 3 3 3 3 3 3 3 3 3 3
          3 3 3 3 3 3 3 3 3 3 3 3
          3 3 3 3 3 3 3 3 3 3 3 3
          3 3 3 3 3 3 3 3 3 3 3 3
          3 3 3 3 3 3 3 3 3 3 3 3
          3 3 3 3 3 3 3 3 3 3 3 3
          3 3 3 3 3 3 3 3 3 3 3 3
          3 3 3 3 3 3 3 3 3 3 3 3
          3 3 3 3 3 3 3 3 3 3 3 3
          3 3 3 3 3 3 3 3 3 3 3 3
          3 3 3 3 3 3 3 3 3 3 3 3
          3 3 3 3 3 3 3 3 3 3 3 3
          3 3 3 3 3 3 3 3 3 3 3 3
          3 3 3 3 3 3 3 3 3 3 3 3
          3 3 3 3 3 3 3 3 3 3 3 3
          3 3 3 3 3 3 3 3 3 3 3 3
          3 3 3 3 3 3 3 3 3 3 3 3
          3 3 3 3 3 3 3 3 3 3 3 3
          3 3 3 3 3 3 3 3 3 3 3 3
          3 3 3 3 3 3 3 3 3 3 3 3
          3 3 3 3 3 3 3 3 3 3 3 3
          3 3 3 3 3 3 3 3 3 3 3 3
          3 3 3 3 3 3 3 3 3 3 3 3
          3 3 3 3 3 3 3 3 3 3 3 3
          3 3 3 3 3 3 3 3 3 3 3 3
          3 3 3 3 3 3 3 3 3 3 3 3
          3 3 3 3 3 3 3 3 3 3 3 3
          3 3 3 3 3 3 3 3 3 3 3 3
          3 3 3 3 3 3 3 3 3 3 3 3
          3 3 3 3 3 3 3 3 3 3 3 3
          3 3 3 3 3 3 3 3 3 3 3 3
          3 3 3 3 3 3 3 3 3 3 3 3
          3 3 3 3 3 3 3 3 3 3 3 3
          3 3 3 3 3 3 3 3 3 3 3 3
          3 3 3 3 3 3 3 3 3 3 3 3
          3 3 3 3 3 3 3 3 3 3 3 3
          3 3 3 3 3 3 3 3 3 3 3 3
          3 3 3 3 3 3 3 3 3 3 3 3
          3 3 3 3 3 3 3 3 3 3 3 3
          3 3 3 3 3 3 3 3 3 3 3 3
          3 3 3 3 3 3 3 3 3 3 3 3
          3 3 3 3 3 3 3 3 3 3 3 3
          3 3 3 3 3 3 3 3 3 3 3 3
          3 3 3 3 3 3 3 3 3 3 3 3
          3 3 3 3 3 3 3 3 3 3 3 3
          3 3 3 3 3 3 3 3 3 3 3 3
          3 3 3 3 3 3 3 3 3 3 3 3
          3 3 3 3 3 3 3 3 3 3 3 3
          3 3 3 3 3 3 3 3 3 3 3 3
          3 3 3 3 3 3 3 3 3 3 3 3
          3 3 3 3 3 3 3 3 3 3 3 3
          3 3 3 3 3 3 3 3 3 3 3 3
          3 3 3 3 3 3 3 3 3 3 3 3
          3 3 3 3 3 3 3 3 3 3 3 3
          3 3 3 3 3 3 3 3 3 3 3 3
          3 3 3 3 3 3 3 3 3 3 3 3
          3 3 3 3 3 3 3 3 3 3 3 3
          3 3 3 3 3 3 3 3 3 3 3 3
          3 3 3 3 3 3 3 3 3 3 3 3
          3 3 3 3 3 3 3 3 3 3 3 3
          3 3 3 3 3 3 3 3 3 3 3 3
          3 3 3 3 3 3 3 3 3 3 3 3
          3 3 3 3 3 3 3 3 3 3 3 3
          3 3 3 3 3 3 3 3 3 3 3 3
          3 3 3 3 3 3 3 3 3 3 3 3
          3 3 3 3 3 3 3 3 3 3 3 3
          3 3 3 3 3 3 3 3 3 3 3 3
          3 3 3 3 3 3 3 3 3 3 3 3
          3 3 3 3 3 3 3 3 3 3 3 3
          3 3 3 3 3 3 3 3 3 3 3 3
          3 3 3 3 3 3 3 3 3 3 3 3
          3 3 3 3 3 3 3 3 3 3 3 3
          3 3 3 3 3 3 3
        </DataArray>
      </CellData>
      <Points>
        <DataArray type="Float32" Name="Coordinates" NumberOfComponents="3" format="ascii">
          -0.00307692 -0.04 -0.078 0.00307692 -0.04 -0.078 -0.00307692 -0.0338462 -0.078 0.00307692 -0.0338462 -0.078
          -0.00307692 -0.04 -0.072 0.00307692 -0.04 -0.072 -0.00307692 -0.0338462 -0.072 0.00307692 -0.0338462 -0.072
          0.00923077 -0.04 -0.078 0.00923077 -0.0338462 -0.078 0.00923077 -0.04 -0.072 0.00923077 -0.0338462 -0.072
          0.0153846 -0.04 -0.078 0.0153846 -0.0338462 -0.078 0.0153846 -0.04 -0.072 0.0153846 -0.0338462 -0.072
          0.0215385 -0.04 -0.078 0.0215385 -0.0338462 -0.078 0.0215385 -0.04 -0.072 0.0215385 -0.0338462 -0.072
          0.0276923 -0.04 -0.078 0.0276923 -0.0338462 -0.078 0.0276923 -0.04 -0.072 0.0276923 -0.0338462 -0.072
          0.0338462 -0.04 -0.078 0.0338462 -0.0338462 -0.078 0.0338462 -0.04 -0.072 0.0338462 -0.0338462 -0.072
          0.04 -0.04 -0.078 0.04 -0.0338462 -0.078 0.04 -0.04 -0.072 0.04 -0.0338462 -0.072
          -0.00307692 -0.0276923 -0.078 0.00307692 -0.0276923 -0.078 -0.00307692 -0.0276923 -0.072 0.00307692 -0.0276923 -0.072
          0.00923077 -0.0276923 -0.078 0.00923077 -0.0276923 -0.072 0.0153846 -0.0276923 -0.078 0.0153846 -0.0276923 -0.072
          0.0215385 -0.0276923 -0.078 0.0215385 -0.0276923 -0.072 0.0276923 -0.0276923 -0.078 0.0276923 -0.0276923 -0.072
          0.0338462 -0.0276923 -0.078 0.0338462 -0.0276923 -0.072 0.04 -0.0276923 -0.078 0.04 -0.0276923 -0.072
          -0.00307692 -0.0215385 -0.078 0.00307692 -0.0215385 -0.078 -0.00307692 -0.0215385 -0.072 0.00307692 -0.0215385 -0.072
          0.00923077 -0.0215385 -0.078 0.00923077 -0.0215385 -0.072 0.0153846 -0.0215385 -0.078 0.0153846 -0.0215385 -0.072
          0.0215385 -0.0215385 -0.078 0.0215385 -0.0215385 -0.072 0.0276923 -0.0215385 -0.078 0.0276923 -0.0215385 -0.072
          0.0338462 -0.0215385 -0.078 0.0338462 -0.0215385 -0.072 0.04 -0.0215385 -0.078 0.04 -0.0215385 -0.072
          -0.00307692 -0.0153846 -0.078 0.00307692 -0.0153846 -0.078 -0.00307692 -0.0153846 -0.072 0.00307692 -0.0153846 -0.072
          0.00923077 -0.0153846 -0.078 0.00923077 -0.0153846 -0.072 0.0153846 -0.0153846 -0.078 0.0153846 -0.0153846 -0.072
          0.0215385 -0.0153846 -0.078 0.0215385 -0.0153846 -0.072 0.0276923 -0.0153846 -0.078 0.0276923 -0.0153846 -0.072
          0.0338462 -0.0153846 -0.078 0.0338462 -0.0153846 -0.072 0.04 -0.0153846 -0.078 0.04 -0.0153846 -0.072
          -0.00307692 -0.00923077 -0.078 0.00307692 -0.00923077 -0.078 -0.00307692 -0.00923077 -0.072 0.00307692 -0.00923077 -0.072
          0.00923077 -0.00923077 -0.078 0.00923077 -0.00923077 -0.072 0.0153846 -0.00923077 -0.078 0.0153846 -0.00923077 -0.072
          0.0215385 -0.00923077 -0.078 0.0215385 -0.00923077 -0.072 0.0276923 -0.00923077 -0.078 0.0276923 -0.00923077 -0.072
          0.0338462 -0.00923077 -0.078 0.0338462 -0.00923077 -0.072 0.04 -0.00923077 -0.078 0.04 -0.00923077 -0.072
          -0.00307692 -0.00307692 -0.078 0.00307692 -0.00307692 -0.078 -0.00307692 -0.00307692 -0.072 0.00307692 -0.00307692 -0.072
          0.00923077 -0.00307692 -0.078 0.00923077 -0.00307692 -0.072 0.0153846 -0.00307692 -0.078 0.0153846 -0.00307692 -0.072
          0.0215385 -0.00307692 -0.078 0.0215385 -0.00307692 -0.072 0.0276923 -0.00307692 -0.078 0.0276923 -0.00307692 -0.072