<?xml version="1.0"?>
<VTKFile type="UnstructuredGrid" version="0.1" byte_order="LittleEndian">
  <UnstructuredGrid>
    <Piece NumberOfCells="450" NumberOfPoints="660">
      <CellData Scalars="p (Pa)">
        <DataArray type="Float32" Name="p (Pa)" NumberOfComponents="1" format="ascii">
          -444303 -446135 -449462 -453643 -457846 -443720 -445582 -448969 -453233 -457517 -442467 -444357
          -447802 -452150 -456517 -440451 -442323 -445736 -450044 -454363 -437685 -439468 -442708 -446773
          -450822 -434358 -435989 -438936 -442603 -446221 -430826 -432271 -434867 -438070 -441206 -427556
          -428816 -431069 -433833 -436531 -425035 -426147 -428132 -430560 -432936 -423662 -424694 -426532
          -428781 -430988 -451132 -453341 -457365 -462422 -467435 -450595 -452868 -457024 -462277 -467499
          -449384 -451728 -456041 -461536 -467035 -447334 -449684 -454012 -459545 -465104 -444414 -446658
          -450771 -455974 -461129 -440810 -442856 -446572 -451201 -455688 -436911 -438705 -441933 -445897
          -449668 -433246 -434782 -437523 -440849 -443990 -430392 -431719 -434074 -436915 -439602 -428830
          -430042 -432186 -434769 -437224 -464843 -467894 -473501 -480590 -487512 -464423 -467628 -473575
          -481209 -488764 -463329 -466730 -473119 -481509 -490044 -461236 -464707 -471259 -479953 -488997
          -458011 -461342 -467572 -475670 -483796 -453835 -456865 -462451 -469504 -476228 -449158 -451783
          -456554 -462424 -467784 -444639 -446821 -450727 -455421 -459611 -441056 -442870 -446079 -449879
          -453267 -439077 -440689 -443520 -446853 -449845 -485587 -490112 -498568 -509467 -520066 -485403
          -490287 -499590 -511988 -524509 -484568 -489928 -500402 -515061 -531027 -482462 -488046 -499053
          -514815 -533144 -478790 -484188 -494649 -509030 -524347 -473729 -478662 -488040 -500355 -512185
          -467788 -472042 -479986 -490049 -498981 -461820 -465240 -471460 -478989 -485310 -456980 -459688
          -464494 -470120 -474781 -454283 -456598 -460650 -465323 -469223 -513299 -520123 -533204 -550670
          -567913 -513523 -521120 -536190 -557640 -580697 -513158 -521816 -539768 -567841 -603538 -511107
          -520292 -539556 -570788 -616436 -506866 -515833 -534135 -561636 -594741 -500614 -508966 -525686
          -549470 -573753 -492855 -500123 -514477 -534286 -552663 -484650 -490281 -500908 -514355 -525275
          -477839 -482038 -489616 -498556 -505449 -474018 -477443 -483464 -490327 -495624 -547338 -557343
          -577115 -604829 -633239 -548152 -559649 -583647 -621277 -666965 -548464 -562060 -592543 -649126
          -746303 -546485 -561069 -593933 -656371 -785608 -541558 -556037 -587473 -640314 -715557 -533877
          -547897 -578253 -627957 -688769 -523737 -536289 -563654 -609220 -664364 -512310 -521606 -540315
          -566486 -588911 -502640 -509100 -521128 -535811 -546579 -497214 -502206 -511084 -521214 -528470
          -586144 -599865 -627600 -668230 -712175 -587614 -603759 -638946 -700202 -790726 -588598 -608232
          -655704 -766233 -1.13172e+06 -586437 -607520 -657346 -761979 -1.01543e+06 -580560 -602104 -651514 -742875
          -885656 -571209 -593314 -646193 -753333 -964000 -558221 -578974 -631455 -753445 -1.05741e+06 -542571
          -557079 -588886 -640559 -692010 -529238 -538580 -556660 -579856 -596238 -521825 -528655 -540986
          -555159 -564613 -627312 -644564 -679106 -728888 -782665 -629306 -649662 -693167 -765598 -867045
          -630518 -655317 -713360 -836335 -1.16205e+06 -627331 -654096 -716183 -837128 -1.06189e+06 -619571 -647807
          -714276 -841924 -1.04087e+06 -607758 -638055 -715958 -893263 -1.18846e+06 -591470 -621421 -710237 -1.01932e+06
          -1.15832e+06 -571193 -590852 -637064 -719380 -760169 -554149 -566036 -589641 -620347 -636967 -544819
          -553171 -568373 -585766 -596254 -668189 -688921 -729162 -783336 -839937 -670770 -695560 -745888
          -817501 -902174 -671782 -702297 -769066 -874576 -1.03972e+06 -665585 -697196 -767784 -890861 -1.0892e+06
          -653520 -685865 -762116 -913643 -1.19759e+06 -637177 -670814 -757392 -952502 -1.21063e+06 -616732 -649468
          -748495 -1.11334e+06 -1.17865e+06 -592919 -613944 -663464 -751690 -783343 -573521 -586096 -610967 -642928
          -658636 -563052 -571869 -587856 -606006 -616758
        </DataArray>
        <DataArray type="Float32" Name="saturation" NumberOfComponents="1" format="ascii">
          0.751384 0.751218 0.750917 0.750542 0.750168 0.751437 0.751268 0.750962 0.750579 0.750197 0.751552 0.751379
          0.751067 0.750676 0.750286 0.751736 0.751565 0.751254 0.750865 0.750478 0.751991 0.751826 0.75153 0.75116
          0.750795 0.752299 0.752147 0.751875 0.751539 0.75121 0.752628 0.752493 0.752251 0.751955 0.751667 0.752935
          0.752816 0.752605 0.752347 0.752097 0.753173 0.753067 0.75288 0.752653 0.752431 0.753303 0.753205 0.753031
          0.752819 0.752613 0.750767 0.750569 0.750211 0.749764 0.749326 0.750815 0.750611 0.750241 0.749777 0.74932
          0.750924 0.750713 0.750328 0.749842 0.749361 0.751109 0.750897 0.750509 0.750018 0.749529 0.751374 0.75117
          0.750799 0.750334 0.749878 0.751703 0.751516 0.751178 0.750761 0.75036 0.752062 0.751897 0.751601 0.751239
          0.750899 0.752402 0.752259 0.752006 0.7517 0.751413 0.752668 0.752544 0.752325 0.752062 0.751814 0.752815
          0.752701 0.752501 0.75226 0.752033 0.749552 0.749286 0.748801 0.748196 0.747612 0.749589 0.749309 0.748795
          0.748143 0.747507 0.749685 0.749388 0.748834 0.748118 0.747401 0.749869 0.749564 0.748995 0.74825 0.747488
          0.750153 0.749859 0.749314 0.748615 0.747925 0.750525 0.750255 0.749762 0.749146 0.748568 0.750945 0.750709
          0.750283 0.749764 0.749296 0.751354 0.751156 0.750803 0.750383 0.750012 0.751681 0.751515 0.751223 0.75088
          0.750576 0.751862 0.751714 0.751456 0.751153 0.750883 0.747774 0.747395 0.746695 0.745809 0.744964 0.747789
          0.74738 0.746612 0.745607 0.744615 0.74786 0.74741 0.746545 0.745361 0.744107 0.748037 0.747568 0.746656
          0.745381 0.743943 0.748349 0.747892 0.747018 0.745845 0.744627 0.748782 0.74836 0.747568 0.746549 0.745591
          0.749295 0.748927 0.748247 0.7474 0.746662 0.749817 0.749517 0.748977 0.748332 0.747797 0.750245 0.750005
          0.749583 0.749093 0.748691 0.750485 0.750279 0.74992 0.74951 0.749171 0.745502 0.74496 0.743938 0.742609
          0.741335 0.745484 0.744881 0.743708 0.74209 0.740413 0.745513 0.744826 0.743434 0.74134 0.738812 0.745678
          0.744947 0.74345 0.741126 0.737933 0.746019 0.7453 0.743866 0.741795 0.739422 0.746528 0.74585 0.744523
          0.742699 0.740912 0.747167 0.746568 0.745408 0.743855 0.74246 0.747853 0.747381 0.746504 0.745418 0.744555
          0.74843 0.748073 0.747436 0.746696 0.746134 0.748757 0.748464 0.747953 0.747377 0.746938 0.74286 0.742112
          0.74067 0.738723 0.736813 0.742799 0.741941 0.740203 0.737607 0.734647 0.742775 0.741764 0.739576 0.735779
          0.729936 0.742924 0.741837 0.739478 0.735316 0.727778 0.743298 0.742209 0.739932 0.736349 0.731702 0.743886
          0.742818 0.740588 0.737162 0.733301 0.744675 0.743701 0.741646 0.738423 0.73481 0.745581 0.744843 0.743392
          0.741439 0.739831 0.746362 0.745839 0.74488 0.743737 0.742917 0.746807 0.746398 0.74568 0.744874 0.744305
          0.740026 0.739066 0.737185 0.734568 0.731901 0.739922 0.738797 0.736439 0.732612 0.727505 0.739853 0.73849
          0.735358 0.728829 0.712363 0.740005 0.738539 0.735254 0.729063 0.716948 0.740423 0.738911 0.735626 0.73013
          0.722725 0.741096 0.739522 0.735968 0.729542 0.719145 0.742047 0.740536 0.73693 0.729536 0.715235 0.743221
          0.742131 0.739833 0.736334 0.733105 0.744245 0.743525 0.742163 0.740473 0.739318 0.744826 0.744291 0.743341
          0.742274 0.741576 0.737205 0.736074 0.733892 0.730928 0.727936 0.737072 0.735745 0.733035 0.728863 0.723621
          0.736992 0.735383 0.731831 0.725142 0.711245 0.737203 0.735461 0.731666 0.725102 0.715056 0.737722 0.735864
          0.731777 0.724862 0.715902 0.738523 0.736497 0.731679 0.722364 0.710296 0.739651 0.737598 0.732015 0.716786
          0.711381 0.741097 0.739694 0.736562 0.731479 0.729163 0.742349 0.741472 0.739779 0.73767 0.736568 0.74305
          0.742422 0.741302 0.740053 0.739316 0.73457 0.733292 0.730912 0.7279 0.724961 0.734409 0.73289 0.72996
          0.726102 0.721945 0.734346 0.732486 0.728673 0.723256 0.715948 0.734733 0.732792 0.728744 0.722478 0.713983
          0.735498 0.733478 0.729055 0.721411 0.709972 0.736554 0.734406 0.729316 0.719652 0.709515 0.737913 0.735757
          0.729813 0.713056 0.710646 0.739549 0.738101 0.734867 0.729634 0.7279 0.740928 0.74003 0.738303 0.73618
          0.735172 0.741691 0.741048 0.739905 0.738643 0.737911
        </DataArray>
        <DataArray type="Float32" Name="process rank" NumberOfComponents="1" format="ascii">
          0 0 0 0 0 0 0 0 0 0 0 0
          0 0 0 0 0 0 0 0 0 0 0 0
          0 0 0 0 0 0 0 0 0 0 0 0
          0 0 0 0 0 0 0 0 0 0 0 0
          0 0 0 0 0 0 0 0 0 0 0 0
          0 0 0 0 0 0 0 0 0 0 0 0
          0 0 0 0 0 0 0 0 0 0 0 0
          0 0 0 0 0 0 0 0 0 0 0 0
          0 0 0 0 0 0 0 0 0 0 0 0
          0 0 0 0 0 0 0 0 0 0 0 0
          0 0 0 0 0 0 0 0 0 0 0 0
          0 0 0 0 0 0 0 0 0 0 0 0
          0 0 0 0 0 0 0 0 0 0 0 0
          0 0 0 0 0 0 0 0 0 0 0 0
          0 0 0 0 0 0 0 0 0 0 0 0
          0 0 0 0 0 0 0 0 0 0 0 0
          0 0 0 0 0 0 0 0 0 0 0 0
          0 0 0 0 0 0 0 0 0 0 0 0
          0 0 0 0 0 0 0 0 0 0 0 0
          0 0 0 0 0 0 0 0 0 0 0 0
          0 0 0 0 0 0 0 0 0 0 0 0
          0 0 0 0 0 0 0 0 0 0 0 0
          0 0 0 0 0 0 0 0 0 0 0 0
          0 0 0 0 0 0 0 0 0 0 0 0
          0 0 0 0 0 0 0 0 0 0 0 0
          0 0 0 0 0 0 0 0 0 0 0 0
          0 0 0 0 0 0 0 0 0 0 0 0
          0 0 0 0 0 0 0 0 0 0 0 0
          0 0 0 0 0 0 0 0 0 0 0 0
          0 0 0 0 0 0 0 0 0 0 0 0
          0 0 0 0 0 0 0 0 0 0 0 0
          0 0 0 0 0 0 0 0 0 0 0 0
          0 0 0 0 0 0 0 0 0 0 0 0
          0 0 0 0 0 0 0 0 0 0 0 0
          0 0 0 0 0 0 0 0 0 0 0 0
          0 0 0 0 0 0 0 0 0 0 0 0
          0 0 0 0 0 0 0 0 0 0 0 0
          0 0 0 0 0 0
        </DataArray>
      </CellData>
      <Points>
        <DataArray type="Float32" Name="Coordinates" NumberOfComponents="3" format="ascii">
          -0.04 -0.04 -0.15 -0.032 -0.04 -0.15 -0.04 -0.032 -0.15 -0.032 -0.032 -0.15
          -0.04 -0.04 -0.142105 -0.032 -0.04 -0.142105 -0.04 -0.032 -0.142105 -0.032 -0.032 -0.142105
          -0.024 -0.04 -0.15 -0.024 -0.032 -0.15 -0.024 -0.04 -0.142105 -0.024 -0.032 -0.142105
          -0.016 -0.04 -0.15 -0.016 -0.032 -0.15 -0.016 -0.04 -0.142105 -0.016 -0.032 -0.142105
          -0.008 -0.04 -0.15 -0.008 -0.032 -0.15 -0.008 -0.04 -0.142105 -0.008 -0.032 -0.142105
          0 -0.04 -0.15 0 -0.032 -0.15 0 -0.04 -0.142105 0 -0.032 -0.142105
          -0.04 -0.024 -0.15 -0.032 -0.024 -0.15 -0.04 -0.024 -0.142105 -0.032 -0.024 -0.142105
          -0.024 -0.024 -0.15 -0.024 -0.024 -0.142105 -0.016 -0.024 -0.15 -0.016 -0.024 -0.142105
          -0.008 -0.024 -0.15 -0.008 -0.024 -0.142105 0 -0.024 -0.15 0 -0.024 -0.142105
          -0.04 -0.016 -0.15 -0.032 -0.016 -0.15 -0.04 -0.016 -0.142105 -0.032 -0.016 -0.142105
          -0.024 -0.016 -0.15 -0.024 -0.016 -0.142105 -0.016 -0.016 -0.15 -0.016 -0.016 -0.142105
          -0.008 -0.016 -0.15 -0.008 -0.016 -0.142105 0 -0.016 -0.15 0 -0.016 -0.142105
          -0.04 -0.008 -0.15 -0.032 -0.008 -0.15 -0.04 -0.008 -0.142105 -0.032 -0.008 -0.142105
          -0.024 -0.008 -0.15 -0.024 -0.008 -0.142105 -0.016 -0.008 -0.15 -0.016 -0.008 -0.142105
          -0.008 -0.008 -0.15 -0.008 -0.008 -0.142105 0 -0.008 -0.15 0 -0.008 -0.142105
          -0.04 0 -0.15 -0.032 0 -0.15 -0.04 0 -0.142105 -0.032 0 -0.142105
          -0.024 0 -0.15 -0.024 0 -0.142105 -0.016 0 -0.15 -0.016 0 -0.142105
          -0.008 0 -0.15 -0.008 0 -0.142105 0 0 -0.15 0 0 -0.142105
          -0.04 0.008 -0.15 -0.032 0.008 -0.15 -0.04 0.008 -0.142105 -0.032 0.008 -0.142105
          -0.024 0.008 -0.15 -0.024 0.008 -0.142105 -0.016 0.008 -0.15 -0.016 0.008 -0.142105
          -0.008 0.008 -0.15 -0.008 0.008 -0.142105 0 0.008 -0.15 0 0.008 -0.142105
          -0.04 0.016 -0.15 -0.032 0.016 -0.15 -0.04 0.016 -0.142105 -0.032 0.016 -0.142105
          -0.024 0.016 -0.15 -0.024 0.016 -0.142105 -0.016 0.016 -0.15 -0.016 0.016 -0.142105
          -0.008 0.016 -0.15 -0.008 0.016 -0.142105 0 0.016 -0.15 0 0.016 -0.142105
          -0.04 0.024 -0.15 -0.032 0.024 -0.15 -0.04 0.024 -0.142105 -0.032 0.024 -0.142105
          -0.024 0.024 -0.15 -0.024 0.024 -0.142105 -0.016 0.024 -0.15 -0.016 0.024 -0.142105
          -0.008 0.024 -0.15 -0.008 0.024 -0.142105 0 0.024 -0.15 0 0.024 -0.142105
          -0.04 0.032 -0.15 -0.032 0.032 -0.15 -0.04 0.032 -0.142105 -0.032 0.032 -0.142105
          -0.024 0.032 -0.15 -0.024 0.032 -0.142105 -0.016 0.032 -0.15 -0.016 0.032 -0.142105
          -0.008 0.032 -0.15 -0.008 0.032 -0.142105 0 0.032 -0.15 0 0.032 -0.142105
          -0.04 0.04 -0.15 -0.032 0.04 -0.15 -0.04 0.04 -0.142105 -0.032 0.04 -0.142105
          -0.024 0.04 -0.15 -0.024 0.04 -0.142105 -0.016 0.04 -0.15 -0.016 0.04 -0.142105
          -0.008 0.04 -0.15 -0.008 0.04 -0.142105 0 0.04 -0.15 0 0.04 -0.142105
          -0.04 -0.04 -0.134211 -0.032 -0.04 -0.134211 -0.04 -0.032 -0.134211 -0.032 -0.032 -0.134211
          -0.024 -0.04 -0.134211 -0.024 -0.032 -0.134211 -0.016 -0.04 -0.134211 -0.016 -0.032 -0.134211
          -0.008 -0.04 -0.134211 -0.008 -0.032 -0.134211 0 -0.04 -0.134211 0 -0.032 -0.134211
          -0.04 -0.024 -0.134211 -0.032 -0.024 -0.134211 -0.024 -0.024 -0.134211 -0.016 -0.024 -0.134211
          -0.008 -0.024 -0.134211 0 -0.024 -0.134211 -0.04 -0.016 -0.134211 -0.032 -0.016 -0.134211
          -0.024 -0.016 -0.134211 -0.016 -0.016 -0.134211 -0.008 -0.016 -0.134211 0 -0.016 -0.134211
          -0.04 -0.008 -0.134211 -0.032 -0.008 -0.134211 -0.024 -0.008 -0.134211 -0.016 -0.008 -0.134211
          -0.008 -0.008 -0.134211 0 -0.008 -0.134211 -0.04 0 -0.134211 -0.032 0 -0.134211
          -0.024 0 -0.134211 -0.016 0 -0.134211 -0.008 0 -0.134211 0 0 -0.134211
          -0.04 0.008 -0.134211 -0.032 0.008 -0.134211 -0.024 0.008 -0.134211 -0.016 0.008 -0.134211
          -0.008 0.008 -0.134211 0 0.008 -0.134211 -0.04 0.016 -0.134211 -0.032 0.016 -0.134211
          -0.024 0.016 -0.134211 -0.016 0.016 -0.134211 -0.008 0.016 -0.134211 0 0.016 -0.134211
          -0.04 0.024 -0.134211 -0.032 0.024 -0.134211 -0.024 0.024 -0.134211 -0.016 0.024 -0.134211
          -0.008 0.024 -0.134211 0 0.024 -0.134211 -0.04 0.032 -0.134211 -0.032 0.032 -0.134211
          -0.024 0.032 -0.134211 -0.016 0.032 -0.134211 -0.008 0.032 -0.134211 0 0.032 -0.134211
          -0.04 0.04 -0.134211 -0.032 0.04 -0.134211 -0.024 0.04 -0.134211 -0.016 0.04 -0.134211
          -0.008 0.04 -0.134211 0 0.04 -0.134211 -0.04 -0.04 -0.126316 -0.032 -0.04 -0.126316
          -0.04 -0.032 -0.126316 -0.032 -0.032 -0.126316 -0.024 -0.04 -0.126316 -0.024 -0.032 -0.126316
          -0.016 -0.04 -0.126316 -0.016 -0.032 -0.126316 -0.008 -0.04 -0.126316 -0.008 -0.032 -0.126316
          0 -0.04 -0.126316 0 -0.032 -0.126316 -0.04 -0.024 -0.126316 -0.032 -0.024 -0.126316
          -0.024 -0.024 -0.126316 -0.016 -0.024 -0.126316 -0.008 -0.024 -0.126316 0 -0.024 -0.126316
          -0.04 -0.016 -0.126316 -0.032 -0.016 -0.126316 -0.024 -0.016 -0.126316 -0.016 -0.016 -0.126316
          -0.008 -0.016 -0.126316 0 -0.016 -0.126316 -0.04 -0.008 -0.126316 -0.032 -0.008 -0.126316
          -0.024 -0.008 -0.126316 -0.016 -0.008 -0.126316 -0.008 -0.008 -0.126316 0 -0.008 -0.126316
          -0.04 0 -0.126316 -0.032 0 -0.126316 -0.024 0 -0.126316 -0.016 0 -0.126316
          -0.008 0 -0.126316 0 0 -0.126316 -0.04 0.008 -0.126316 -0.032 0.008 -0.126316
          -0.024 0.008 -0.126316 -0.016 0.008 -0.126316 -0.008 0.008 -0.126316 0 0.008 -0.126316
          -0.04 0.016 -0.126316 -0.032 0.016 -0.126316 -0.024 0.016 -0.126316 -0.016 0.016 -0.126316
          -0.008 0.016 -0.126316 0 0.016 -0.126316 -0.04 0.024 -0.126316 -0.032 0.024 -0.126316
          -0.024 0.024 -0.126316 -0.016 0.024 -0.126316 -0.008 0.024 -0.126316 0 0.024 -0.126316
          -0.04 0.032 -0.126316 -0.032 0.032 -0.126316 -0.024 0.032 -0.126316 -0.016 0.032 -0.126316
          -0.008 0.032 -0.126316 0 0.032 -0.126316 -0.04 0.04 -0.126316 -0.032 0.04 -0.126316
          -0.024 0.04 -0.126316 -0.016 0.04 -0.126316 -0.008 0.04 -0.126316 0 0.04 -0.126316
          -0.04 -0.04 -0.118421 -0.032 -0.04 -0.118421 -0.04 -0.032 -0.118421 -0.032 -0.032 -0.118421
          -0.024 -0.04 -0.118421 -0.024 -0.032 -0.118421 -0.016 -0.04 -0.118421 -0.016 -0.032 -0.118421
          -0.008 -0.04 -0.118421 -0.008 -0.032 -0.118421 0 -0.04 -0.118421 0 -0.032 -0.118421
          -0.04 -0.024 -0.118421 -0.032 -0.024 -0.118421 -0.024 -0.024 -0.118421 -0.016 -0.024 -0.118421
          -0.008 -0.024 -0.118421 0 -0.024 -0.118421 -0.04 -0.016 -0.118421 -0.032 -0.016 -0.118421
          -0.024 -0.016 -0.118421 -0.016 -0.016 -0.118421 -0.008 -0.016 -0.118421 0 -0.016 -0.118421
          -0.04 -0.008 -0.118421 -0.032 -0.008 -0.118421 -0.024 -0.008 -0.118421 -0.016 -0.008 -0.118421
          -0.008 -0.008 -0.118421 0 -0.008 -0.118421 -0.04 0 -0.118421 -0.032 0 -0.118421
          -0.024 0 -0.118421 -0.016 0 -0.118421 -0.008 0 -0.118421 0 0 -0.118421
          -0.04 0.008 -0.118421 -0.032 0.008 -0.118421 -0.024 0.008 -0.118421 -0.016 0.008 -0.118421
          -0.008 0.008 -0.118421 0 0.008 -0.118421 -0.04 0.016 -0.118421 -0.032 0.016 -0.118421
          -0.024 0.016 -0.118421 -0.016 0.016 -0.118421 -0.008 0.016 -0.118421 0 0.016 -0.118421
          -0.04 0.024 -0.118421 -0.032 0.024 -0.118421 -0.024 0.024 -0.118421 -0.016 0.024 -0.118421
          -0.008 0.024 -0.118421 0 0.024 -0.118421 -0.04 0.032 -0.118421 -0.032 0.032 -0.118421
          -0.024 0.032 -0.118421 -0.016 0.032 -0.118421 -0.008 0.032 -0.118421 0 0.032 -0.118421
          -0.04 0.04 -0.118421 -0.032 0.04 -0.118421 -0.024 0.04 -0.118421 -0.016 0.04 -0.118421
          -0.008 0.04 -0.118421 0 0.04 -0.118421 -0.04 -0.04 -0.110526 -0.032 -0.04 -0.110526
          -0.04 -0.032 -0.110526 -0.032 -0.032 -0.110526 -0.024 -0.04 -0.110526 -0.024 -0.032 -0.110526
          -0.016 -0.04 -0.110526 -0.016 -0.032 -0.110526 -0.008 -0.04 -0.110526 -0.008 -0.032 -0.110526
          0 -0.04 -0.110526 0 -0.032 -0.110526 -0.04 -0.024 -0.110526 -0.032 -0.024 -0.110526
          -0.024 -0.024 -0.110526 -0.016 -0.024 -0.110526 -0.008 -0.024 -0.110526 0 -0.024 -0.110526
          -0.04 -0.016 -0.110526 -0.032 -0.016 -0.110526 -0.024 -0.016 -0.110526 -0.016 -0.016 -0.110526
          -0.008 -0.016 -0.110526 0 -0.016 -0.110526 -0.04 -0.008 -0.110526 -0.032 -0.008 -0.110526
          -0.024 -0.008 -0.110526 -0.016 -0.008 -0.110526 -0.008 -0.008 -0.110526 0 -0.008 -0.110526
          -0.04 0 -0.110526 -0.032 0 -0.110526 -0.024 0 -0.110526 -0.016 0 -0.110526
          -0.008 0 -0.110526 0 0 -0.110526 -0.04 0.008 -0.110526 -0.032 0.008 -0.110526
          -0.024 0.008 -0.110526 -0.016 0.008 -0.110526 -0.008 0.008 -0.110526 0 0.008 -0.110526
          -0.04 0.016 -0.110526 -0.032 0.016 -0.110526 -0.024 0.016 -0.110526 -0.016 0.016 -0.110526
          -0.008 0.016 -0.110526 0 0.016 -0.110526 -0.04 0.024 -0.110526 -0.032 0.024 -0.110526
          -0.024 0.024 -0.110526 -0.016 0.024 -0.110526 -0.008 0.024 -0.110526 0 0.024 -0.110526
          -0.04 0.032 -0.110526 -0.032 0.032 -0.110526 -0.024 0.032 -0.110526 -0.016 0.032 -0.110526
          -0.008 0.032 -0.110526 0 0.032 -0.110526 -0.04 0.04 -0.110526 -0.032 0.04 -0.110526
          -0.024 0.04 -0.110526 -0.016 0.04 -0.110526 -0.008 0.04 -0.110526 0 0.04 -0.110526
          -0.04 -0.04 -0.102632 -0.032 -0.04 -0.102632 -0.04 -0.032 -0.102632 -0.032 -0.032 -0.102632
          -0.024 -0.04 -0.102632 -0.024 -0.032 -0.102632 -0.016 -0.04 -0.102632 -0.016 -0.032 -0.102632
          -0.008 -0.04 -0.102632 -0.008 -0.032 -0.102632 0 -0.04 -0.102632 0 -0.032 -0.102632
          -0.04 -0.024 -0.102632 -0.032 -0.024 -0.102632 -0.024 -0.024 -0.102632 -0.016 -0.024 -0.102632
          -0.008 -0.024 -0.102632 0 -0.024 -0.102632 -0.04 -0.016 -0.102632 -0.032 -0.016 -0.102632
          -0.024 -0.016 -0.102632 -0.016 -0.016 -0.102632 -0.008 -0.016 -0.102632 0 -0.016 -0.102632
          -0.04 -0.008 -0.102632 -0.032 -0.008 -0.102632 -0.024 -0.008 -0.102632 -0.016 -0.008 -0.102632
          -0.008 -0.008 -0.102632 0 -0.008 -0.102632 -0.04 0 -0.102632 -0.032 0 -0.102632
          -0.024 0 -0.102632 -0.016 0 -0.102632 -0.008 0 -0.102632 0 0 -0.102632
          -0.04 0.008 -0.102632 -0.032 0.008 -0.102632 -0.024 0.008 -0.102632 -0.016 0.008 -0.102632
          -0.008 0.008 -0.102632 0 0.008 -0.102632 -0.04 0.016 -0.102632 -0.032 0.016 -0.102632
          -0.024 0.016 -0.102632 -0.016 0.016 -0.102632 -0.008 0.016 -0.102632 0 0.016 -0.102632
          -0.04 0.024 -0.102632 -0.032 0.024 -0.102632 -0.024 0.024 -0.102632 -0.016 0.024 -0.102632
          -0.008 0.024 -0.102632 0 0.024 -0.102632 -0.04 0.032 -0.102632 -0.032 0.032 -0.102632
          -0.024 0.032 -0.102632 -0.016 0.032 -0.102632 -0.008 0.032 -0.102632 0 0.032 -0.102632
          -0.04 0.04 -0.102632 -0.032 0.04 -0.102632 -0.024 0.04 -0.102632 -0.016 0.04 -0.102632
          -0.008 0.04 -0.102632 0 0.04 -0.102632 -0.04 -0.04 -0.0947368 -0.032 -0.04 -0.0947368
          -0.04 -0.032 -0.0947368 -0.032 -0.032 -0.0947368 -0.024 -0.04 -0.0947368 -0.024 -0.032 -0.0947368
          -0.016 -0.04 -0.0947368 -0.016 -0.032 -0.0947368 -0.008 -0.04 -0.0947368 -0.008 -0.032 -0.0947368
          0 -0.04 -0.0947368 0 -0.032 -0.0947368 -0.04 -0.024 -0.0947368 -0.032 -0.024 -0.0947368
          -0.024 -0.024 -0.0947368 -0.016 -0.024 -0.0947368 -0.008 -0.024 -0.0947368 0 -0.024 -0.0947368
          -0.04 -0.016 -0.0947368 -0.032 -0.016 -0.0947368 -0.024 -0.016 -0.0947368 -0.016 -0.016 -0.0947368
          -0.008 -0.016 -0.0947368 0 -0.016 -0.0947368 -0.04 -0.008 -0.0947368 -0.032 -0.008 -0.0947368
          -0.024 -0.008 -0.0947368 -0.016 -0.008 -0.0947368 -0.008 -0.008 -0.0947368 0 -0.008 -0.0947368
          -0.04 0 -0.0947368 -0.032 0 -0.0947368 -0.024 0 -0.0947368 -0.016 0 -0.0947368
          -0.008 0 -0.0947368 0 0 -0.0947368 -0.04 0.008 -0.0947368 -0.032 0.008 -0.0947368
          -0.024 0.008 -0.0947368 -0.016 0.008 -0.0947368 -0.008 0.008 -0.0947368 0 0.008 -0.0947368
          -0.04 0.016 -0.0947368 -0.032 0.016 -0.0947368 -0.024 0.016 -0.0947368 -0.016 0.016 -0.0947368
          -0.008 0.016 -0.0947368 0 0.016 -0.0947368 -0.04 0.024 -0.0947368 -0.032 0.024 -0.0947368
          -0.024 0.024 -0.0947368 -0.016 0.024 -0.0947368 -0.008 0.024 -0.0947368 0 0.024 -0.0947368
          -0.04 0.032 -0.0947368 -0.032 0.032 -0.0947368 -0.024 0.032 -0.0947368 -0.016 0.032 -0.0947368
          -0.008 0.032 -0.0947368 0 0.032 -0.0947368 -0.04 0.04 -0.0947368 -0.032 0.04 -0.0947368
          -0.024 0.04 -0.0947368 -0.016 0.04 -0.0947368 -0.008 0.04 -0.0947368 0 0.04 -0.0947368
          -0.04 -0.04 -0.0868421 -0.032 -0.04 -0.0868421 -0.04 -0.032 -0.0868421 -0.032 -0.032 -0.0868421
          -0.024 -0.04 -0.0868421 -0.024 -0.032 -0.0868421 -0.016 -0.04 -0.0868421 -0.016 -0.032 -0.0868421
          -0.008 -0.04 -0.0868421 -0.008 -0.032 -0.0868421 0 -0.04 -0.0868421 0 -0.032 -0.0868421
          -0.04 -0.024 -0.0868421 -0.032 -0.024 -0.0868421 -0.024 -0.024 -0.0868421 -0.016 -0.024 -0.0868421
          -0.008 -0.024 -0.0868421 0 -0.024 -0.0868421 -0.04 -0.016 -0.0868421 -0.032 -0.016 -0.0868421
          -0.024 -0.016 -0.0868421 -0.016 -0.016 -0.0868421 -0.008 -0.016 -0.0868421 0 -0.016 -0.0868421
          -0.04 -0.008 -0.0868421 -0.032 -0.008 -0.0868421 -0.024 -0.008 -0.0868421 -0.016 -0.008 -0.0868421
          -0.008 -0.008 -0.0868421 0 -0.008 -0.0868421 -0.04 0 -0.0868421 -0.032 0 -0.0868421
          -0.024 0 -0.0868421 -0.016 0 -0.0868421 -0.008 0 -0.0868421 0 0 -0.0868421
          -0.04 0.008 -0.0868421 -0.032 0.008 -0.0868421 -0.024 0.008 -0.0868421 -0.016 0.008 -0.0868421
          -0.008 0.008 -0.0868421 0 0.008 -0.0868421 -0.04 0.016 -0.0868421 -0.032 0.016 -0.0868421
          -0.024 0.016 -0.0868421 -0.016 0.016 -0.0868421 -0.008 0.016 -0.0868421 0 0.016 -0.0868421
          -0.04 0.024 -0.0868421 -0.032 0.024 -0.0868421 -0.024 0.024 -0.0868421 -0.016 0.024 -0.0868421
          -0.008 0.024 -0.0868421 0 0.024 -0.0868421 -0.04 0.032 -0.0868421 -0.032 0.032 -0.0868421
          -0.024 0.032 -0.0868421 -0.016 0.032 -0.0868421 -0.008 0.032 -0.0868421 0 0.032 -0.0868421
          -0.04 0.04 -0.0868421 -0.032 0.04 -0.0868421 -0.024 0.04 -0.0868421 -0.016 0.04 -0.0868421
          -0.008 0.04 -0.0868421 0 0.04 -0.0868421 -0.04 -0.04 -0.0789474 -0.032 -0.04 -0.0789474
          -0.04 -0.032 -0.0789474 -0.032 -0.032 -0.0789474 -0.024 -0.04 -0.0789474 -0.024 -0.032 -0.0789474
          -0.016 -0.04 -0.0789474 -0.016 -0.032 -0.0789474 -0.008 -0.04 -0.0789474 -0.008 -0.032 -0.0789474
          0 -0.04 -0.0789474 0 -0.032 -0.0789474 -0.04 -0.024 -0.0789474 -0.032 -0.024 -0.0789474
          -0.024 -0.024 -0.0789474 -0.016 -0.024 -0.0789474 -0.008 -0.024 -0.0789474 0 -0.024 -0.0789474
          -0.04 -0.016 -0.0789474 -0.032 -0.016 -0.0789474 -0.024 -0.016 -0.0789474 -0.016 -0.016 -0.0789474
          -0.008 -0.016 -0.0789474 0 -0.016 -0.0789474 -0.04 -0.008 -0.0789474 -0.032 -0.008 -0.0789474
          -0.024 -0.008 -0.0789474 -0.016 -0.008 -0.0789474 -0.008 -0.008 -0.0789474 0 -0.008 -0.0789474
          -0.04 0 -0.0789474 -0.032 0 -0.0789474 -0.024 0 -0.0789474 -0.016 0 -0.0789474
          -0.008 0 -0.0789474 0 0 -0.0789474 -0.04 0.008 -0.0789474 -0.032 0.008 -0.0789474
          -0.024 0.008 -0.0789474 -0.016 0.008 -0.0789474 -0.008 0.008 -0.0789474 0 0.008 -0.0789474
          -0.04 0.016 -0.0789474 -0.032 0.016 -0.0789474 -0.024 0.016 -0.0789474 -0.016 0.016 -0.0789474
          -0.008 0.016 -0.0789474 0 0.016 -0.0789474 -0.04 0.024 -0.0789474 -0.032 0.024 -0.0789474
          -0.024 0.024 -0.0789474 -0.016 0.024 -0.0789474 -0.008 0.024 -0.0789474 0 0.024 -0.0789474
          -0.04 0.032 -0.0789474 -0.032 0.032 -0.0789474 -0.024 0.032 -0.0789474 -0.016 0.032 -0.0789474
          -0.008 0.032 -0.0789474 0 0.032 -0.0789474 -0.04 0.04 -0.0789474 -0.032 0.04 -0.0789474
          -0.024 0.04 -0.0789474 -0.016 0.04 -0.0789474 -0.008 0.04 -0.0789474 0 0.04 -0.0789474
        </DataArray>
      </Points>
      <Cells>
        <DataArray type="Int32" Name="connectivity" NumberOfComponents="1" format="ascii">
          0 1 3 2 4 5 7 6 1 8 9 3
          5 10 11 7 8 12 13 9 10 14 15 11
          12 16 17 13 14 18 19 15 16 20 21 17
          18 22 23 19 2 3 25 24 6 7 27 26
          3 9 28 25 7 11 29 27 9 13 30 28
          11 15 31 29 13 17 32 30 15 19 33 31
          17 21 34 32 19 23 35 33 24 25 37 36
          26 27 39 38 25 28 40 37 27 29 41 39
          28 30 42 40 29 31 43 41 30 32 44 42
          31 33 45 43 32 34 46 44 33 35 47 45
          36 37 49 48 38 39 51 50 37 40 52 49
          39 41 53 51 40 42 54 52 41 43 55 53
          42 44 56 54 43 45 57 55 44 46 58 56
          45 47 59 57 48 49 61 60 50 51 63 62
          49 52 64 61 51 53 65 63 52 54 66 64
          53 55 67 65 54 56 68 66 55 57 69 67
          56 58 70 68 57 59 71 69 60 61 73 72
          62 63 75 74 61 64 76 73 63 65 77 75
          64 66 78 76 65 67 79 77 66 68 80 78
          67 69 81 79 68 70 82 80 69 71 83 81
          72 73 85 84 74 75 87 86 73 76 88 85
          75 77 89 87 76 78 90 88 77 79 91 89
          78 80 92 90 79 81 93 91 80 82 94 92
          81 83 95 93 84 85 97 96 86 87 99 98
          85 88 100 97 87 89 101 99 88 90 102 100
          89 91 103 101 90 92 104 102 91 93 105 103
          92 94 106 104 93 95 107 105 96 97 109 108
          98 99 111 110 97 100 112 109 99 101 113 111
          100 102 114 112 101 103 115 113 102 104 116 114
          103 105 117 115 104 106 118 116 105 107 119 117
          108 109 121 120 110 111 123 122 109 112 124 121
          111 113 125 123 112 114 126 124 113 115 127 125
          114 116 128 126 115 117 129 127 116 118 130 128
          117 119 131 129 4 5 7 6 132 133 135 134
          5 10 11 7 133 136 137 135 10 14 15 11
          136 138 139 137 14 18 19 15 138 140 141 139
          18 22 23 19 140 142 143 141 6 7 27 26
          134 135 145 144 7 11 29 27 135 137 146 145
          11 15 31 29 137 139 147 146 15 19 33 31
          139 141 148 147 19 23 35 33 141 143 149 148
          26 27 39 38 144 145 151 150 27 29 41 39
          145 146 152 151 29 31 43 41 146 147 153 152
          31 33 45 43 147 148 154 153 33 35 47 45
          148 149 155 154 38 39 51 50 150 151 157 156
          39 41 53 51 151 152 158 157 41 43 55 53
          152 153 159 158 43 45 57 55 153 154 160 159
          45 47 59 57 154 155 161 160 50 51 63 62
          156 157 163 162 51 53 65 63 157 158 164 163
          53 55 67 65 158 159 165 164 55 57 69 67
          159 160 166 165 57 59 71 69 160 161 167 166
          62 63 75 74 162 163 169 168 63 65 77 75
          163 164 170 169 65 67 79 77 164 165 171 170
          67 69 81 79 165 166 172 171 69 71 83 81
          166 167 173 172 74 75 87 86 168 169 175 174
          75 77 89 87 169 170 176 175 77 79 91 89
          170 171 177 176 79 81 93 91 171 172 178 177
          81 83 95 93 172 173 179 178 86 87 99 98
          174 175 181 180 87 89 101 99 175 176 182 181
          89 91 103 101 176 177 183 182 91 93 105 103
          177 178 184 183 93 95 107 105 178 179 185 184
          98 99 111 110 180 181 187 186 99 101 113 111
          181 182 188 187 101 103 115 113 182 183 189 188
          103 105 117 115 183 184 190 189 105 107 119 117
          184 185 191 190 110 111 123 122 186 187 193 192
          111 113 125 123 187 188 194 193 113 115 127 125
          188 189 195 194 115 117 129 127 189 190 196 195
          117 119 131 129 190 191 197 196 132 133 135 134