<?xml version="1.0"?>
<VTKFile type="UnstructuredGrid" version="0.1" byte_order="LittleEndian">
  <UnstructuredGrid>
    <Piece NumberOfCells="450" NumberOfPoints="660">
      <CellData Scalars="p (Pa)">
        <DataArray type="Float32" Name="p (Pa)" NumberOfComponents="1" format="ascii">
          -461283 -463522 -464622 -464971 -465009 -460989 -463188 -464207 -464478 -464469 -460015 -462142
          -463040 -463202 -463131 -457799 -459833 -460642 -460740 -460634 -454032 -455955 -456748 -456869
          -456782 -449084 -450848 -451638 -451823 -451789 -443690 -445269 -446038 -446282 -446305 -438689
          -440104 -440846 -441132 -441199 -434861 -436161 -436883 -437197 -437294 -432793 -434035 -434747
          -435076 -435188 -471346 -473607 -474423 -474422 -474233 -471516 -473695 -474339 -474179 -473899
          -471203 -473244 -473633 -473250 -472844 -469306 -471215 -471449 -470951 -470476 -464989 -466845
          -467179 -466793 -466373 -459002 -460713 -461169 -460975 -460683 -452428 -453931 -454442 -454406
          -454241 -446314 -447649 -448188 -448264 -448197 -441638 -442870 -443432 -443584 -443580 -439118
          -440302 -440879 -441071 -441098 -492484 -494671 -494708 -493820 -493079 -494076 -496004 -495554
          -494256 -493288 -496002 -497462 -496239 -494333 -493031 -495537 -496585 -494895 -492673 -491166
          -489443 -490840 -489781 -488001 -486637 -480599 -481987 -481509 -480339 -479339 -471060 -472202
          -472001 -471261 -470613 -462207 -463224 -463215 -462773 -462375 -455480 -456474 -456623 -456384
          -456142 -451883 -452882 -453122 -452990 -452823 -526913 -528602 -526868 -524173 -522350 -532372
          -533097 -529909 -526116 -523716 -541474 -540077 -534243 -528674 -525333 -547686 -543649 -535774
          -529123 -525044 -534734 -533919 -529176 -524143 -520282 -518470 -518501 -515872 -512707 -509906
          -502583 -502324 -500472 -498318 -496574 -487970 -487928 -486681 -485207 -484134 -477078 -477391
          -476659 -475668 -474973 -471372 -471895 -471451 -470715 -470193 -577638 -577703 -572426 -566470
          -562772 -593041 -589564 -580120 -571401 -566310 -625966 -612015 -593358 -579549 -571855 -671023
          -633516 -604276 -586443 -575864 -619464 -609304 -595913 -584040 -572519 -582113 -577312 -570617
          -564457 -556324 -553206 -547932 -542558 -538012 -533685 -526367 -523155 -519313 -516015 -513630
          -507238 -505843 -503408 -501127 -499655 -497640 -497110 -495436 -493702 -492609 -646262 -642767
          -631672 -620739 -614245 -683418 -668936 -647602 -630622 -621147 -790784 -729718 -679685 -649707
          -633599 -1.16502e+06 -825188 -719424 -675004 -647564 -782889 -741429 -717753 -695280 -652309 -687593
          -667944 -657608 -653906 -624604 -635448 -612921 -600821 -593621 -582629 -581089 -569361 -560615
          -554536 -549714 -546013 -540946 -535616 -531393 -528726 -529752 -527285 -523691 -520524 -518628
          -726681 -719173 -701639 -684885 -675013 -789811 -762766 -727512 -700473 -685462 -967029 -878885
          -786753 -734614 -705986 -1.19189e+06 -1.17387e+06 -893607 -801261 -735224 -942744 -936804 -1.00002e+06 -990161
          -764010 -839598 -788634 -790606 -859482 -714450 -767010 -693933 -671026 -664229 -637356 -651358
          -622122 -605855 -596225 -587698 -589891 -578952 -569722 -563086 -558942 -564385 -559266 -553314
          -548470 -545657 -804770 -797800 -777142 -755329 -742132 -880933 -848782 -807668 -772921 -753466
          -1.0914e+06 -968165 -875444 -808975 -774218 -1.19539e+06 -1.12644e+06 -991818 -863254 -797618 -1.08626e+06 -1.07587e+06
          -1.18389e+06 -919803 -803208 -978054 -888489 -864680 -807239 -744555 -857062 -759097 -720813 -693932
          -671254 -706082 -666302 -642988 -627762 -618073 -627107 -612177 -599730 -590761 -585633 -594961
          -587938 -580142 -573908 -570394 -875101 -877083 -859218 -831889 -814468 -953066 -931098 -889031
          -847305 -823468 -1.18214e+06 -1.06102e+06 -955064 -876306 -837314 -1.20305e+06 -1.20575e+06 -1.05275e+06 -907188 -844337
          -1.21077e+06 -1.20513e+06 -1.18121e+06 -912290 -825580 -1.06481e+06 -951652 -887624 -805548 -761182 -896037 -794877
          -746821 -712143 -692191 -732516 -692775 -667017 -649452 -639731 -649592 -634754 -621564 -611771
          -606383 -615876 -608902 -600768 -594117 -590390
        </DataArray>
        <DataArray type="Float32" Name="saturation" NumberOfComponents="1" format="ascii">
          0.749864 0.749668 0.749571 0.749541 0.749538 0.74989 0.749697 0.749608 0.749584 0.749585 0.749976 0.749789
          0.74971 0.749696 0.749702 0.750172 0.749992 0.749921 0.749912 0.749922 0.750507 0.750336 0.750265 0.750255
          0.750262 0.750951 0.750792 0.750722 0.750705 0.750708 0.75144 0.751296 0.751227 0.751204 0.751202 0.751898
          0.751768 0.7517 0.751674 0.751668 0.752252 0.752131 0.752065 0.752036 0.752027 0.752444 0.752329 0.752262
          0.752232 0.752222 0.748987 0.748792 0.748722 0.748722 0.748739 0.748972 0.748785 0.748729 0.748743 0.748767
          0.748999 0.748824 0.74879 0.748823 0.748858 0.749164 0.748998 0.748978 0.749021 0.749062 0.749539 0.749377
          0.749348 0.749382 0.749419 0.750066 0.749915 0.749874 0.749892 0.749917 0.750651 0.750516 0.750471 0.750474
          0.750489 0.751202 0.751081 0.751032 0.751025 0.751031 0.751628 0.751515 0.751464 0.75145 0.75145 0.751859
          0.75175 0.751697 0.751679 0.751677 0.747198 0.747016 0.747013 0.747087 0.747148 0.747066 0.746906 0.746944
          0.747051 0.747131 0.746907 0.746786 0.746887 0.747044 0.747152 0.746945 0.746858 0.746998 0.747182 0.747307
          0.747451 0.747334 0.747423 0.747571 0.747686 0.748195 0.748077 0.748118 0.748217 0.748302 0.749012 0.748913
          0.748931 0.748994 0.74905 0.749783 0.749694 0.749695 0.749733 0.749768 0.750378 0.75029 0.750277 0.750298
          0.750319 0.7507 0.75061 0.750589 0.7506 0.750615 0.744427 0.744295 0.74443 0.744641 0.744784 0.744003
          0.743946 0.744193 0.744489 0.744677 0.743304 0.743411 0.743858 0.744289 0.74455 0.742834 0.743139 0.74374
          0.744254 0.744573 0.74382 0.743883 0.74425 0.744643 0.744947 0.745091 0.745088 0.745297 0.745549 0.745774
          0.746367 0.746388 0.746539 0.746716 0.746859 0.747574 0.747577 0.747682 0.747806 0.747896 0.748495 0.748468
          0.748531 0.748615 0.748675 0.748985 0.74894 0.748978 0.749042 0.749087 0.740632 0.740627 0.741007 0.74144
          0.741711 0.739541 0.739785 0.740454 0.741082 0.741452 0.737294 0.738232 0.739519 0.740495 0.741049 0.734393
          0.736795 0.738761 0.740005 0.740759 0.737729 0.738417 0.73934 0.740175 0.741001 0.740312 0.740655 0.741139
          0.741588 0.742188 0.74242 0.742815 0.743222 0.743568 0.743901 0.744469 0.744721 0.745024 0.745286 0.745476
          0.745989 0.746102 0.7463 0.746486 0.746606 0.746772 0.746815 0.746953 0.747097 0.747187 0.735964 0.73619
          0.736916 0.737643 0.738081 0.733628 0.734523 0.735877 0.736985 0.737616 0.727502 0.73088 0.733857 0.735742
          0.736789 0.711138 0.725708 0.731476 0.734146 0.73588 0.727924 0.730211 0.731574 0.732907 0.735575 0.733373
          0.734586 0.735237 0.735473 0.737385 0.736668 0.738171 0.739 0.7395 0.740276 0.740385 0.74123 0.74187
          0.74232 0.742681 0.74296 0.743344 0.743752 0.744078 0.744285 0.744206 0.744398 0.744679 0.744928 0.745078
          0.731055 0.731491 0.732526 0.733538 0.734145 0.727553 0.729019 0.731007 0.732595 0.733503 0.719012 0.723049
          0.727717 0.730599 0.732267 0.710174 0.710818 0.722348 0.726947 0.730564 0.720087 0.720354 0.717594 0.718013
          0.728951 0.724978 0.727616 0.727511 0.723991 0.731767 0.728786 0.732988 0.734393 0.734819 0.736543 0.735636
          0.737551 0.738653 0.739318 0.739916 0.739762 0.740538 0.741203 0.741688 0.741994 0.741593 0.74197 0.742412
          0.742775 0.742987 0.726763 0.72713 0.728234 0.729431 0.730172 0.722951 0.724519 0.726612 0.728463 0.729535
          0.713897 0.718963 0.723215 0.726544 0.728393 0.71005 0.712561 0.717942 0.723806 0.727139 0.714097 0.714503
          0.710458 0.721128 0.726845 0.718533 0.72259 0.723737 0.726635 0.730035 0.72411 0.729222 0.731395 0.732988
          0.734379 0.732261 0.734688 0.736176 0.737175 0.737822 0.737218 0.738221 0.739075 0.739701 0.740062 0.739407
          0.739899 0.740453 0.7409 0.741155 0.723231 0.723136 0.724004 0.725367 0.726259 0.719627 0.720612 0.722564
          0.724593 0.725796 0.710521 0.715091 0.719538 0.723173 0.725093 0.70978 0.709685 0.715422 0.721711 0.724741
          0.70951 0.709707 0.710554 0.721474 0.725688 0.71494 0.71969 0.722631 0.726723 0.729107 0.722233 0.727284
          0.729907 0.731903 0.733094 0.730719 0.733058 0.734644 0.735758 0.736387 0.735749 0.736713 0.737588 0.738249
          0.738617 0.737971 0.738444 0.739003 0.739466 0.739727
        </DataArray>
        <DataArray type="Float32" Name="process rank" NumberOfComponents="1" format="ascii">
          1 1 1 1 1 1 1 1 1 1 1 1
          1 1 1 1 1 1 1 1 1 1 1 1
          1 1 1 1 1 1 1 1 1 1 1 1
          1 1 1 1 1 1 1 1 1 1 1 1
          1 1 1 1 1 1 1 1 1 1 1 1
          1 1 1 1 1 1 1 1 1 1 1 1
          1 1 1 1 1 1 1 1 1 1 1 1
          1 1 1 1 1 1 1 1 1 1 1 1
          1 1 1 1 1 1 1 1 1 1 1 1
          1 1 1 1 1 1 1 1 1 1 1 1
          1 1 1 1 1 1 1 1 1 1 1 1
          1 1 1 1 1 1 1 1 1 1 1 1
          1 1 1 1 1 1 1 1 1 1 1 1
          1 1 1 1 1 1 1 1 1 1 1 1
          1 1 1 1 1 1 1 1 1 1 1 1
          1 1 1 1 1 1 1 1 1 1 1 1
          1 1 1 1 1 1 1 1 1 1 1 1
          1 1 1 1 1 1 1 1 1 1 1 1
          1 1 1 1 1 1 1 1 1 1 1 1
          1 1 1 1 1 1 1 1 1 1 1 1
          1 1 1 1 1 1 1 1 1 1 1 1
          1 1 1 1 1 1 1 1 1 1 1 1
          1 1 1 1 1 1 1 1 1 1 1 1
          1 1 1 1 1 1 1 1 1 1 1 1
          1 1 1 1 1 1 1 1 1 1 1 1
          1 1 1 1 1 1 1 1 1 1 1 1
          1 1 1 1 1 1 1 1 1 1 1 1
          1 1 1 1 1 1 1 1 1 1 1 1
          1 1 1 1 1 1 1 1 1 1 1 1
          1 1 1 1 1 1 1 1 1 1 1 1
          1 1 1 1 1 1 1 1 1 1 1 1
          1 1 1 1 1 1 1 1 1 1 1 1
          1 1 1 1 1 1 1 1 1 1 1 1
          1 1 1 1 1 1 1 1 1 1 1 1
          1 1 1 1 1 1 1 1 1 1 1 1
          1 1 1 1 1 1 1 1 1 1 1 1
          1 1 1 1 1 1 1 1 1 1 1 1
          1 1 1 1 1 1
        </DataArray>
      </CellData>
      <Points>
        <DataArray type="Float32" Name="Coordinates" NumberOfComponents="3" format="ascii">
          0 -0.04 -0.15 0.008 -0.04 -0.15 0 -0.032 -0.15 0.008 -0.032 -0.15
          0 -0.04 -0.142105 0.008 -0.04 -0.142105 0 -0.032 -0.142105 0.008 -0.032 -0.142105
          0.016 -0.04 -0.15 0.016 -0.032 -0.15 0.016 -0.04 -0.142105 0.016 -0.032 -0.142105
          0.024 -0.04 -0.15 0.024 -0.032 -0.15 0.024 -0.04 -0.142105 0.024 -0.032 -0.142105
          0.032 -0.04 -0.15 0.032 -0.032 -0.15 0.032 -0.04 -0.142105 0.032 -0.032 -0.142105
          0.04 -0.04 -0.15 0.04 -0.032 -0.15 0.04 -0.04 -0.142105 0.04 -0.032 -0.142105
          0 -0.024 -0.15 0.008 -0.024 -0.15 0 -0.024 -0.142105 0.008 -0.024 -0.142105
          0.016 -0.024 -0.15 0.016 -0.024 -0.142105 0.024 -0.024 -0.15 0.024 -0.024 -0.142105
          0.032 -0.024 -0.15 0.032 -0.024 -0.142105 0.04 -0.024 -0.15 0.04 -0.024 -0.142105
          0 -0.016 -0.15 0.008 -0.016 -0.15 0 -0.016 -0.142105 0.008 -0.016 -0.142105
          0.016 -0.016 -0.15 0.016 -0.016 -0.142105 0.024 -0.016 -0.15 0.024 -0.016 -0.142105
          0.032 -0.016 -0.15 0.032 -0.016 -0.142105 0.04 -0.016 -0.15 0.04 -0.016 -0.142105
          0 -0.008 -0.15 0.008 -0.008 -0.15 0 -0.008 -0.142105 0.008 -0.008 -0.142105
          0.016 -0.008 -0.15 0.016 -0.008 -0.142105 0.024 -0.008 -0.15 0.024 -0.008 -0.142105
          0.032 -0.008 -0.15 0.032 -0.008 -0.142105 0.04 -0.008 -0.15 0.04 -0.008 -0.142105
          0 0 -0.15 0.008 0 -0.15 0 0 -0.142105 0.008 0 -0.142105
          0.016 0 -0.15 0.016 0 -0.142105 0.024 0 -0.15 0.024 0 -0.142105
          0.032 0 -0.15 0.032 0 -0.142105 0.04 0 -0.15 0.04 0 -0.142105
          0 0.008 -0.15 0.008 0.008 -0.15 0 0.008 -0.142105 0.008 0.008 -0.142105
          0.016 0.008 -0.15 0.016 0.008 -0.142105 0.024 0.008 -0.15 0.024 0.008 -0.142105
          0.032 0.008 -0.15 0.032 0.008 -0.142105 0.04 0.008 -0.15 0.04 0.008 -0.142105
          0 0.016 -0.15 0.008 0.016 -0.15 0 0.016 -0.142105 0.008 0.016 -0.142105
          0.016 0.016 -0.15 0.016 0.016 -0.142105 0.024 0.016 -0.15 0.024 0.016 -0.142105
          0.032 0.016 -0.15 0.032 0.016 -0.142105 0.04 0.016 -0.15 0.04 0.016 -0.142105
          0 0.024 -0.15 0.008 0.024 -0.15 0 0.024 -0.142105 0.008 0.024 -0.142105
          0.016 0.024 -0.15 0.016 0.024 -0.142105 0.024 0.024 -0.15 0.024 0.024 -0.142105
          0.032 0.024 -0.15 0.032 0.024 -0.142105 0.04 0.024 -0.15 0.04 0.024 -0.142105
          0 0.032 -0.15 0.008 0.032 -0.15 0 0.032 -0.142105 0.008 0.032 -0.142105
          0.016 0.032 -0.15 0.016 0.032 -0.142105 0.024 0.032 -0.15 0.024 0.032 -0.142105
          0.032 0.032 -0.15 0.032 0.032 -0.142105 0.04 0.032 -0.15 0.04 0.032 -0.142105
          0 0.04 -0.15 0.008 0.04 -0.15 0 0.04 -0.142105 0.008 0.04 -0.142105
          0.016 0.04 -0.15 0.016 0.04 -0.142105 0.024 0.04 -0.15 0.024 0.04 -0.142105
          0.032 0.04 -0.15 0.032 0.04 -0.142105 0.04 0.04 -0.15 0.04 0.04 -0.142105
          0 -0.04 -0.134211 0.008 -0.04 -0.134211 0 -0.032 -0.134211 0.008 -0.032 -0.134211
          0.016 -0.04 -0.134211 0.016 -0.032 -0.134211 0.024 -0.04 -0.134211 0.024 -0.032 -0.134211
          0.032 -0.04 -0.134211 0.032 -0.032 -0.134211 0.04 -0.04 -0.134211 0.04 -0.032 -0.134211
          0 -0.024 -0.134211 0.008 -0.024 -0.134211 0.016 -0.024 -0.134211 0.024 -0.024 -0.134211
          0.032 -0.024 -0.134211 0.04 -0.024 -0.134211 0 -0.016 -0.134211 0.008 -0.016 -0.134211
          0.016 -0.016 -0.134211 0.024 -0.016 -0.134211 0.032 -0.016 -0.134211 0.04 -0.016 -0.134211
          0 -0.008 -0.134211 0.008 -0.008 -0.134211 0.016 -0.008 -0.134211 0.024 -0.008 -0.134211
          0.032 -0.008 -0.134211 0.04 -0.008 -0.134211 0 0 -0.134211 0.008 0 -0.134211
          0.016 0 -0.134211 0.024 0 -0.134211 0.032 0 -0.134211 0.04 0 -0.134211
          0 0.008 -0.134211 0.008 0.008 -0.134211 0.016 0.008 -0.134211 0.024 0.008 -0.134211
          0.032 0.008 -0.134211 0.04 0.008 -0.134211 0 0.016 -0.134211 0.008 0.016 -0.134211
          0.016 0.016 -0.134211 0.024 0.016 -0.134211 0.032 0.016 -0.134211 0.04 0.016 -0.134211
          0 0.024 -0.134211 0.008 0.024 -0.134211 0.016 0.024 -0.134211 0.024 0.024 -0.134211
          0.032 0.024 -0.134211 0.04 0.024 -0.134211 0 0.032 -0.134211 0.008 0.032 -0.134211
          0.016 0.032 -0.134211 0.024 0.032 -0.134211 0.032 0.032 -0.134211 0.04 0.032 -0.134211
          0 0.04 -0.134211 0.008 0.04 -0.134211 0.016 0.04 -0.134211 0.024 0.04 -0.134211
          0.032 0.04 -0.134211 0.04 0.04 -0.134211 0 -0.04 -0.126316 0.008 -0.04 -0.126316
          0 -0.032 -0.126316 0.008 -0.032 -0.126316 0.016 -0.04 -0.126316 0.016 -0.032 -0.126316
          0.024 -0.04 -0.126316 0.024 -0.032 -0.126316 0.032 -0.04 -0.126316 0.032 -0.032 -0.126316
          0.04 -0.04 -0.126316 0.04 -0.032 -0.126316 0 -0.024 -0.126316 0.008 -0.024 -0.126316
          0.016 -0.024 -0.126316 0.024 -0.024 -0.126316 0.032 -0.024 -0.126316 0.04 -0.024 -0.126316
          0 -0.016 -0.126316 0.008 -0.016 -0.126316 0.016 -0.016 -0.126316 0.024 -0.016 -0.126316
          0.032 -0.016 -0.126316 0.04 -0.016 -0.126316 0 -0.008 -0.126316 0.008 -0.008 -0.126316
          0.016 -0.008 -0.126316 0.024 -0.008 -0.126316 0.032 -0.008 -0.126316 0.04 -0.008 -0.126316
          0 0 -0.126316 0.008 0 -0.126316 0.016 0 -0.126316 0.024 0 -0.126316
          0.032 0 -0.126316 0.04 0 -0.126316 0 0.008 -0.126316 0.008 0.008 -0.126316
          0.016 0.008 -0.126316 0.024 0.008 -0.126316 0.032 0.008 -0.126316 0.04 0.008 -0.126316
          0 0.016 -0.126316 0.008 0.016 -0.126316 0.016 0.016 -0.126316 0.024 0.016 -0.126316
          0.032 0.016 -0.126316 0.04 0.016 -0.126316 0 0.024 -0.126316 0.008 0.024 -0.126316
          0.016 0.024 -0.126316 0.024 0.024 -0.126316 0.032 0.024 -0.126316 0.04 0.024 -0.126316
          0 0.032 -0.126316 0.008 0.032 -0.126316 0.016 0.032 -0.126316 0.024 0.032 -0.126316
          0.032 0.032 -0.126316 0.04 0.032 -0.126316 0 0.04 -0.126316 0.008 0.04 -0.126316
          0.016 0.04 -0.126316 0.024 0.04 -0.126316 0.032 0.04 -0.126316 0.04 0.04 -0.126316
          0 -0.04 -0.118421 0.008 -0.04 -0.118421 0 -0.032 -0.118421 0.008 -0.032 -0.118421
          0.016 -0.04 -0.118421 0.016 -0.032 -0.118421 0.024 -0.04 -0.118421 0.024 -0.032 -0.118421
          0.032 -0.04 -0.118421 0.032 -0.032 -0.118421 0.04 -0.04 -0.118421 0.04 -0.032 -0.118421
          0 -0.024 -0.118421 0.008 -0.024 -0.118421 0.016 -0.024 -0.118421 0.024 -0.024 -0.118421
          0.032 -0.024 -0.118421 0.04 -0.024 -0.118421 0 -0.016 -0.118421 0.008 -0.016 -0.118421
          0.016 -0.016 -0.118421 0.024 -0.016 -0.118421 0.032 -0.016 -0.118421 0.04 -0.016 -0.118421
          0 -0.008 -0.118421 0.008 -0.008 -0.118421 0.016 -0.008 -0.118421 0.024 -0.008 -0.118421
          0.032 -0.008 -0.118421 0.04 -0.008 -0.118421 0 0 -0.118421 0.008 0 -0.118421
          0.016 0 -0.118421 0.024 0 -0.118421 0.032 0 -0.118421 0.04 0 -0.118421
          0 0.008 -0.118421 0.008 0.008 -0.118421 0.016 0.008 -0.118421 0.024 0.008 -0.118421
          0.032 0.008 -0.118421 0.04 0.008 -0.118421 0 0.016 -0.118421 0.008 0.016 -0.118421
          0.016 0.016 -0.118421 0.024 0.016 -0.118421 0.032 0.016 -0.118421 0.04 0.016 -0.118421
          0 0.024 -0.118421 0.008 0.024 -0.118421 0.016 0.024 -0.118421 0.024 0.024 -0.118421
          0.032 0.024 -0.118421 0.04 0.024 -0.118421 0 0.032 -0.118421 0.008 0.032 -0.118421
          0.016 0.032 -0.118421 0.024 0.032 -0.118421 0.032 0.032 -0.118421 0.04 0.032 -0.118421
          0 0.04 -0.118421 0.008 0.04 -0.118421 0.016 0.04 -0.118421 0.024 0.04 -0.118421
          0.032 0.04 -0.118421 0.04 0.04 -0.118421 0 -0.04 -0.110526 0.008 -0.04 -0.110526
          0 -0.032 -0.110526 0.008 -0.032 -0.110526 0.016 -0.04 -0.110526 0.016 -0.032 -0.110526
          0.024 -0.04 -0.110526 0.024 -0.032 -0.110526 0.032 -0.04 -0.110526 0.032 -0.032 -0.110526
          0.04 -0.04 -0.110526 0.04 -0.032 -0.110526 0 -0.024 -0.110526 0.008 -0.024 -0.110526
          0.016 -0.024 -0.110526 0.024 -0.024 -0.110526 0.032 -0.024 -0.110526 0.04 -0.024 -0.110526
          0 -0.016 -0.110526 0.008 -0.016 -0.110526 0.016 -0.016 -0.110526 0.024 -0.016 -0.110526
          0.032 -0.016 -0.110526 0.04 -0.016 -0.110526 0 -0.008 -0.110526 0.008 -0.008 -0.110526
          0.016 -0.008 -0.110526 0.024 -0.008 -0.110526 0.032 -0.008 -0.110526 0.04 -0.008 -0.110526
          0 0 -0.110526 0.008 0 -0.110526 0.016 0 -0.110526 0.024 0 -0.110526
          0.032 0 -0.110526 0.04 0 -0.110526 0 0.008 -0.110526 0.008 0.008 -0.110526
          0.016 0.008 -0.110526 0.024 0.008 -0.110526 0.032 0.008 -0.110526 0.04 0.008 -0.110526
          0 0.016 -0.110526 0.008 0.016 -0.110526 0.016 0.016 -0.110526 0.024 0.016 -0.110526
          0.032 0.016 -0.110526 0.04 0.016 -0.110526 0 0.024 -0.110526 0.008 0.024 -0.110526
          0.016 0.024 -0.110526 0.024 0.024 -0.110526 0.032 0.024 -0.110526 0.04 0.024 -0.110526
          0 0.032 -0.110526 0.008 0.032 -0.110526 0.016 0.032 -0.110526 0.024 0.032 -0.110526
          0.032 0.032 -0.110526 0.04 0.032 -0.110526 0 0.04 -0.110526 0.008 0.04 -0.110526
          0.016 0.04 -0.110526 0.024 0.04 -0.110526 0.032 0.04 -0.110526 0.04 0.04 -0.110526
          0 -0.04 -0.102632 0.008 -0.04 -0.102632 0 -0.032 -0.102632 0.008 -0.032 -0.102632
          0.016 -0.04 -0.102632 0.016 -0.032 -0.102632 0.024 -0.04 -0.102632 0.024 -0.032 -0.102632
          0.032 -0.04 -0.102632 0.032 -0.032 -0.102632 0.04 -0.04 -0.102632 0.04 -0.032 -0.102632
          0 -0.024 -0.102632 0.008 -0.024 -0.102632 0.016 -0.024 -0.102632 0.024 -0.024 -0.102632
          0.032 -0.024 -0.102632 0.04 -0.024 -0.102632 0 -0.016 -0.102632 0.008 -0.016 -0.102632
          0.016 -0.016 -0.102632 0.024 -0.016 -0.102632 0.032 -0.016 -0.102632 0.04 -0.016 -0.102632
          0 -0.008 -0.102632 0.008 -0.008 -0.102632 0.016 -0.008 -0.102632 0.024 -0.008 -0.102632
          0.032 -0.008 -0.102632 0.04 -0.008 -0.102632 0 0 -0.102632 0.008 0 -0.102632
          0.016 0 -0.102632 0.024 0 -0.102632 0.032 0 -0.102632 0.04 0 -0.102632
          0 0.008 -0.102632 0.008 0.008 -0.102632 0.016 0.008 -0.102632 0.024 0.008 -0.102632
          0.032 0.008 -0.102632 0.04 0.008 -0.102632 0 0.016 -0.102632 0.008 0.016 -0.102632
          0.016 0.016 -0.102632 0.024 0.016 -0.102632 0.032 0.016 -0.102632 0.04 0.016 -0.102632
          0 0.024 -0.102632 0.008 0.024 -0.102632 0.016 0.024 -0.102632 0.024 0.024 -0.102632
          0.032 0.024 -0.102632 0.04 0.024 -0.102632 0 0.032 -0.102632 0.008 0.032 -0.102632
          0.016 0.032 -0.102632 0.024 0.032 -0.102632 0.032 0.032 -0.102632 0.04 0.032 -0.102632
          0 0.04 -0.102632 0.008 0.04 -0.102632 0.016 0.04 -0.102632 0.024 0.04 -0.102632
          0.032 0.04 -0.102632 0.04 0.04 -0.102632 0 -0.04 -0.0947368 0.008 -0.04 -0.0947368
          0 -0.032 -0.0947368 0.008 -0.032 -0.0947368 0.016 -0.04 -0.0947368 0.016 -0.032 -0.0947368
          0.024 -0.04 -0.0947368 0.024 -0.032 -0.0947368 0.032 -0.04 -0.0947368 0.032 -0.032 -0.0947368
          0.04 -0.04 -0.0947368 0.04 -0.032 -0.0947368 0 -0.024 -0.0947368 0.008 -0.024 -0.0947368
          0.016 -0.024 -0.0947368 0.024 -0.024 -0.0947368 0.032 -0.024 -0.0947368 0.04 -0.024 -0.0947368
          0 -0.016 -0.0947368 0.008 -0.016 -0.0947368 0.016 -0.016 -0.0947368 0.024 -0.016 -0.0947368
          0.032 -0.016 -0.0947368 0.04 -0.016 -0.0947368 0 -0.008 -0.0947368 0.008 -0.008 -0.0947368
          0.016 -0.008 -0.0947368 0.024 -0.008 -0.0947368 0.032 -0.008 -0.0947368 0.04 -0.008 -0.0947368
          0 0 -0.0947368 0.008 0 -0.0947368 0.016 0 -0.0947368 0.024 0 -0.0947368
          0.032 0 -0.0947368 0.04 0 -0.0947368 0 0.008 -0.0947368 0.008 0.008 -0.0947368
          0.016 0.008 -0.0947368 0.024 0.008 -0.0947368 0.032 0.008 -0.0947368 0.04 0.008 -0.0947368
          0 0.016 -0.0947368 0.008 0.016 -0.0947368 0.016 0.016 -0.0947368 0.024 0.016 -0.0947368
          0.032 0.016 -0.0947368 0.04 0.016 -0.0947368 0 0.024 -0.0947368 0.008 0.024 -0.0947368
          0.016 0.024 -0.0947368 0.024 0.024 -0.0947368 0.032 0.024 -0.0947368 0.04 0.024 -0.0947368
          0 0.032 -0.0947368 0.008 0.032 -0.0947368 0.016 0.032 -0.0947368 0.024 0.032 -0.0947368
          0.032 0.032 -0.0947368 0.04 0.032 -0.0947368 0 0.04 -0.0947368 0.008 0.04 -0.0947368
          0.016 0.04 -0.0947368 0.024 0.04 -0.0947368 0.032 0.04 -0.0947368 0.04 0.04 -0.0947368
          0 -0.04 -0.0868421 0.008 -0.04 -0.0868421 0 -0.032 -0.0868421 0.008 -0.032 -0.0868421
          0.016 -0.04 -0.0868421 0.016 -0.032 -0.0868421 0.024 -0.04 -0.0868421 0.024 -0.032 -0.0868421
          0.032 -0.04 -0.0868421 0.032 -0.032 -0.0868421 0.04 -0.04 -0.0868421 0.04 -0.032 -0.0868421
          0 -0.024 -0.0868421 0.008 -0.024 -0.0868421 0.016 -0.024 -0.0868421 0.024 -0.024 -0.0868421
          0.032 -0.024 -0.0868421 0.04 -0.024 -0.0868421 0 -0.016 -0.0868421 0.008 -0.016 -0.0868421
          0.016 -0.016 -0.0868421 0.024 -0.016 -0.0868421 0.032 -0.016 -0.0868421 0.04 -0.016 -0.0868421
          0 -0.008 -0.0868421 0.008 -0.008 -0.0868421 0.016 -0.008 -0.0868421 0.024 -0.008 -0.0868421
          0.032 -0.008 -0.0868421 0.04 -0.008 -0.0868421 0 0 -0.0868421 0.008 0 -0.0868421
          0.016 0 -0.0868421 0.024 0 -0.0868421 0.032 0 -0.0868421 0.04 0 -0.0868421
          0 0.008 -0.0868421 0.008 0.008 -0.0868421 0.016 0.008 -0.0868421 0.024 0.008 -0.0868421
          0.032 0.008 -0.0868421 0.04 0.008 -0.0868421 0 0.016 -0.0868421 0.008 0.016 -0.0868421
          0.016 0.016 -0.0868421 0.024 0.016 -0.0868421 0.032 0.016 -0.0868421 0.04 0.016 -0.0868421
          0 0.024 -0.0868421 0.008 0.024 -0.0868421 0.016 0.024 -0.0868421 0.024 0.024 -0.0868421
          0.032 0.024 -0.0868421 0.04 0.024 -0.0868421 0 0.032 -0.0868421 0.008 0.032 -0.0868421
          0.016 0.032 -0.0868421 0.024 0.032 -0.0868421 0.032 0.032 -0.0868421 0.04 0.032 -0.0868421
          0 0.04 -0.0868421 0.008 0.04 -0.0868421 0.016 0.04 -0.0868421 0.024 0.04 -0.0868421
          0.032 0.04 -0.0868421 0.04 0.04 -0.0868421 0 -0.04 -0.0789474 0.008 -0.04 -0.0789474
          0 -0.032 -0.0789474 0.008 -0.032 -0.0789474 0.016 -0.04 -0.0789474 0.016 -0.032 -0.0789474
          0.024 -0.04 -0.0789474 0.024 -0.032 -0.0789474 0.032 -0.04 -0.0789474 0.032 -0.032 -0.0789474
          0.04 -0.04 -0.0789474 0.04 -0.032 -0.0789474 0 -0.024 -0.0789474 0.008 -0.024 -0.0789474
          0.016 -0.024 -0.0789474 0.024 -0.024 -0.0789474 0.032 -0.024 -0.0789474 0.04 -0.024 -0.0789474
          0 -0.016 -0.0789474 0.008 -0.016 -0.0789474 0.016 -0.016 -0.0789474 0.024 -0.016 -0.0789474
          0.032 -0.016 -0.0789474 0.04 -0.016 -0.0789474 0 -0.008 -0.0789474 0.008 -0.008 -0.0789474
          0.016 -0.008 -0.0789474 0.024 -0.008 -0.0789474 0.032 -0.008 -0.0789474 0.04 -0.008 -0.0789474
          0 0 -0.0789474 0.008 0 -0.0789474 0.016 0 -0.0789474 0.024 0 -0.0789474
          0.032 0 -0.0789474 0.04 0 -0.0789474 0 0.008 -0.0789474 0.008 0.008 -0.0789474
          0.016 0.008 -0.0789474 0.024 0.008 -0.0789474 0.032 0.008 -0.0789474 0.04 0.008 -0.0789474
          0 0.016 -0.0789474 0.008 0.016 -0.0789474 0.016 0.016 -0.0789474 0.024 0.016 -0.0789474
          0.032 0.016 -0.0789474 0.04 0.016 -0.0789474 0 0.024 -0.0789474 0.008 0.024 -0.0789474
          0.016 0.024 -0.0789474 0.024 0.024 -0.0789474 0.032 0.024 -0.0789474 0.04 0.024 -0.0789474
          0 0.032 -0.0789474 0.008 0.032 -0.0789474 0.016 0.032 -0.0789474 0.024 0.032 -0.0789474
          0.032 0.032 -0.0789474 0.04 0.032 -0.0789474 0 0.04 -0.0789474 0.008 0.04 -0.0789474
          0.016 0.04 -0.0789474 0.024 0.04 -0.0789474 0.032 0.04 -0.0789474 0.04 0.04 -0.0789474
        </DataArray>
      </Points>
      <Cells>
        <DataArray type="Int32" Name="connectivity" NumberOfComponents="1" format="ascii">
          0 1 3 2 4 5 7 6 1 8 9 3
          5 10 11 7 8 12 13 9 10 14 15 11
          12 16 17 13 14 18 19 15 16 20 21 17
          18 22 23 19 2 3 25 24 6 7 27 26
          3 9 28 25 7 11 29 27 9 13 30 28
          11 15 31 29 13 17 32 30 15 19 33 31
          17 21 34 32 19 23 35 33 24 25 37 36
          26 27 39 38 25 28 40 37 27 29 41 39
          28 30 42 40 29 31 43 41 30 32 44 42
          31 33 45 43 32 34 46 44 33 35 47 45
          36 37 49 48 38 39 51 50 37 40 52 49
          39 41 53 51 40 42 54 52 41 43 55 53
          42 44 56 54 43 45 57 55 44 46 58 56
          45 47 59 57 48 49 61 60 50 51 63 62
          49 52 64 61 51 53 65 63 52 54 66 64
          53 55 67 65 54 56 68 66 55 57 69 67
          56 58 70 68 57 59 71 69 60 61 73 72
          62 63 75 74 61 64 76 73 63 65 77 75
          64 66 78 76 65 67 79 77 66 68 80 78
          67 69 81 79 68 70 82 80 69 71 83 81
          72 73 85 84 74 75 87 86 73 76 88 85
          75 77 89 87 76 78 90 88 77 79 91 89
          78 80 92 90 79 81 93 91 80 82 94 92
          81 83 95 93 84 85 97 96 86 87 99 98
          85 88 100 97 87 89 101 99 88 90 102 100
          89 91 103 101 90 92 104 102 91 93 105 103
          92 94 106 104 93 95 107 105 96 97 109 108
          98 99 111 110 97 100 112 109 99 101 113 111
          100 102 114 112 101 103 115 113 102 104 116 114
          103 105 117 115 104 106 118 116 105 107 119 117
          108 109 121 120 110 111 123 122 109 112 124 121
          111 113 125 123 112 114 126 124 113 115 127 125
          114 116 128 126 115 117 129 127 116 118 130 128
          117 119 131 129 4 5 7 6 132 133 135 134
          5 10 11 7 133 136 137 135 10 14 15 11
          136 138 139 137 14 18 19 15 138 140 141 139
          18 22 23 19 140 142 143 141 6 7 27 26
          134 135 145 144 7 11 29 27 135 137 146 145
          11 15 31 29 137 139 147 146 15 19 33 31
          139 141 148 147 19 23 35 33 141 143 149 148
          26 27 39 38 144 145 151 150 27 29 41 39
          145 146 152 151 29 31 43 41 146 147 153 152
          31 33 45 43 147 148 154 153 33 35 47 45
          148 149 155 154 38 39 51 50 150 151 157 156
          39 41 53 51 151 152 158 157 41 43 55 53
          152 153 159 158 43 45 57 55 153 154 160 159
          45 47 59 57 154 155 161 160 50 51 63 62
          156 157 163 162 51 53 65 63 157 158 164 163
          53 55 67 65 158 159 165 164 55 57 69 67
          159 160 166 165 57 59 71 69 160 161 167 166
          62 63 75 74 162 163 169 168 63 65 77 75
          163 164 170 169 65 67 79 77 164 165 171 170
          67 69 81 79 165 166 172 171 69 71 83 81
          166 167 173 172 74 75 87 86 168 169 175 174
          75 77 89 87 169 170 176 175 77 79 91 89
          170 171 177 176 79 81 93 91 171 172 178 177
          81 83 95 93 172 173 179 178 86 87 99 98
          174 175 181 180 87 89 101 99 175 176 182 181
          89 91 103 101 176 177 183 182 91 93 105 103
          177 178 184 183 93 95 107 105 178 179 185 184
          98 99 111 110 180 181 187 186 99 101 113 111
          181 182 188 187 101 103 115 113 182 183 189 188
          103 105 117 115 183 184 190 189 105 107 119 117
          184 185 191 190 110 111 123 122 186 187 193 192
          111 113 125 123 187 188 194 193 113 115 127 125
          188 189 195 194 115 117 129 127 189 190 196 195
          117 119 131 129 190 191 197 196 132 133 135 134
          198 199 201 200 133 136 137 135 199 202 203 201
          136 138 139 137 202 204 205 203 138 140 141 139
          204 206 207 205 140 142 143 141 206 208 209 207
          134 135 145 144 200 201 211 210 135 137 146 145
          201 203 212 211 137 139 147 146 203 205 213 212
          139 141 148 147 205 207 214 213 141 143 149 148
          207 209 215 214 144 145 151 150 210 211 217 216
          145 146 152 151 211 212 218 217 146 147 153 152
          212 213 219 218 147 148 154 153 213 214 220 219
          148 149 155 154 214 215 221 220 150 151 157 156