<?xml version="1.0"?>
<VTKFile type="UnstructuredGrid" version="0.1" byte_order="LittleEndian">
  <UnstructuredGrid>
    <Piece NumberOfCells="500" NumberOfPoints="726">
      <CellData Scalars="p (Pa)">
        <DataArray type="Float32" Name="p (Pa)" NumberOfComponents="1" format="ascii">
          -705456 -730472 -777967 -835729 -892721 -709254 -741414 -806471 -878555 -945735 -710491 -753871
          -857388 -956529 -1.04659e+06 -698209 -735882 -818556 -935844 -1.09402e+06 -678656 -711652 -785545 -915232
          -1.12594e+06 -655628 -685762 -756875 -899621 -1.18677e+06 -630423 -656111 -717556 -833996 -914784 -605098
          -622336 -658506 -710051 -739105 -585357 -596332 -617026 -641912 -656771 -574814 -582862 -597206
          -613306 -623856 -733664 -762767 -818838 -881031 -940005 -738746 -780928 -877902 -953847 -1.00108e+06
          -741095 -811979 -1.11589e+06 -1.18667e+06 -1.13869e+06 -721021 -766674 -877320 -995789 -1.13073e+06 -693515 -725596
          -794666 -898265 -1.04459e+06 -664253 -689076 -741867 -825618 -932242 -635510 -654394 -693416 -749934
          -797133 -609756 -622707 -647658 -679306 -701883 -590631 -599399 -615328 -633917 -647144 -580570
          -587332 -599239 -612678 -622621 -746872 -774183 -826350 -891329 -962195 -749111 -783935 -854658
          -933999 -1.01407e+06 -746471 -792788 -904290 -1.01495e+06 -1.13592e+06 -726884 -765074 -850186 -980432 -1.19699e+06
          -697638 -725991 -785782 -877345 -994283 -665630 -686130 -727514 -786837 -849519 -635293 -649770
          -677759 -714596 -747092 -609712 -619618 -637926 -660296 -678476 -591407 -598368 -610810 -625369
          -637117 -581928 -587495 -597278 -608545 -617800 -748721 -773206 -820764 -885886 -962931 -748275
          -776915 -834266 -912581 -1.00283e+06 -742431 -776854 -851309 -958958 -1.07633e+06 -724324 -758091 -836414
          -979768 -1.12905e+06 -695567 -721990 -780294 -878172 -980784 -662887 -681120 -718149 -771355 -822196
          -632214 -644330 -667439 -697420 -724233 -607105 -615210 -630039 -648187 -664000 -589556 -595310
          -605588 -617825 -628539 -580582 -585265 -593542 -603315 -611987 -744218 -766555 -810874 -874548
          -950948 -742270 -767719 -820212 -898962 -988983 -735109 -765694 -835926 -962304 -1.07642e+06 -718137
          -751822 -845863 -1.14312e+06 -1.21008e+06 -690204 -716523 -782420 -940185 -1.10466e+06 -657865 -675055 -711639
          -769617 -823198 -627656 -638513 -659489 -687426 -712522 -603257 -610330 -623334 -639502 -654117
          -586408 -591412 -600402 -611315 -621356 -577854 -581949 -589244 -598051 -606278 -736729 -757206
          -798207 -858276 -931778 -733753 -756460 -803434 -875469 -965574 -725429 -751578 -809747 -910502
          -1.04515e+06 -708457 -736120 -803882 -949858 -1.19201e+06 -681962 -704180 -754813 -845932 -954029 -651289
          -666362 -697391 -743218 -788832 -622408 -632103 -650689 -675228 -698298 -599011 -605372 -617083
          -631766 -645513 -582863 -587385 -595552 -605607 -615165 -574675 -578390 -585057 -593234 -601120
          -728838 -747826 -785927 -842038 -910876 -725204 -745766 -788122 -853272 -937811 -716072 -738723
          -787571 -869122 -987615 -699054 -721913 -773207 -866104 -1.01801e+06 -673960 -692787 -733165 -798573
          -881435 -645058 -658412 -685233 -723649 -764416 -617581 -626446 -643341 -665618 -687411 -595140
          -601052 -611954 -625718 -638914 -579588 -583821 -591498 -601034 -610261 -571688 -575177 -581466
          -589253 -596887 -722355 -740461 -776851 -830512 -895717 -718493 -737958 -778143 -840446 -922383
          -709178 -730321 -775818 -852420 -969299 -692469 -713554 -760146 -842977 -983513 -668424 -686169
          -724168 -786341 -870055 -640668 -653530 -679521 -717393 -759100 -614067 -622697 -639254 -661368
          -683305 -592216 -597978 -608657 -622241 -635312 -577029 -581141 -588626 -597967 -607026 -569306
          -572685 -578793 -586388 -593859 -718107 -735905 -771785 -824813 -888727 -714349 -733656 -773908
          -837479 -923358 -705345 -726681 -773654 -856804 -996581 -689221 -711010 -761022 -856881 -1.03112e+06
          -665850 -684643 -727138 -805250 -928187 -638502 -652064 -680536 -725041 -777058 -612135 -621078
          -638600 -662754 -686845 -590449 -596307 -607268 -621367 -634802 -575383 -579498 -587017 -596428
          -605479 -567727 -571077 -577144 -584694 -592089 -716128 -733895 -769744 -822482 -884251 -712546
          -732049 -772975 -837730 -921071 -703935 -726038 -775888 -867261 -1.01438e+06 -688349 -711800 -769234
          -897767 -1.19674e+06 -665327 -686051 -737340 -857054 -1.18986e+06 -637941 -652606 -685102 -742279 -822671
          -611459 -620868 -639782 -667099 -695362 -589715 -595734 -607117 -621969 -636058 -574639 -578798
          -586424 -595995 -605128 -566990 -570345 -576430 -584001 -591378
        </DataArray>
        <DataArray type="Float32" Name="saturation" NumberOfComponents="1" format="ascii">
          0.732298 0.730837 0.728189 0.725173 0.72239 0.732073 0.730212 0.726675 0.723065 0.719953 0.732 0.729512
          0.724094 0.719474 0.71567 0.732731 0.730527 0.726048 0.720397 0.713796 0.73392 0.731932 0.727781 0.721338
          0.71258 0.735363 0.733484 0.729345 0.722064 0.710356 0.736998 0.735332 0.731585 0.72526 0.721359 0.738705
          0.737536 0.73518 0.732026 0.730343 0.740082 0.739311 0.737893 0.736246 0.73529 0.740835 0.740259 0.73925
          0.738145 0.737435 0.730654 0.729019 0.726033 0.722946 0.72021 0.730364 0.728029 0.723096 0.719592 0.717549
          0.73023 0.726388 0.712959 0.710359 0.712104 0.731383 0.728804 0.723124 0.717773 0.7124 0.733014 0.731118
          0.727296 0.722128 0.715751 0.734817 0.733282 0.730187 0.725686 0.72056 0.736664 0.735442 0.73302 0.729732
          0.727165 0.738386 0.737511 0.735874 0.73388 0.732511 0.73971 0.739098 0.738008 0.736768 0.735907 0.740422
          0.739942 0.739109 0.738187 0.737517 0.729904 0.728394 0.725649 0.722456 0.719224 0.729779 0.727868 0.724228
          0.720481 0.717004 0.729927 0.727395 0.721846 0.716968 0.712207 0.731043 0.728892 0.72445 0.71843 0.709993
          0.732765 0.731095 0.727769 0.723123 0.717837 0.734731 0.733462 0.731007 0.727712 0.724483 0.736678 0.735738
          0.733976 0.731759 0.729892 0.738389 0.737719 0.736505 0.735067 0.733931 0.739655 0.739169 0.738314 0.737334
          0.736558 0.740325 0.739931 0.739245 0.738469 0.737841 0.7298 0.728448 0.725934 0.722714 0.719192 0.729825
          0.728246 0.725247 0.721461 0.717476 0.730155 0.72825 0.724394 0.719366 0.714485 0.731191 0.729278 0.725138
          0.718459 0.712463 0.73289 0.731327 0.728064 0.723083 0.718415 0.734903 0.733769 0.731551 0.728548 0.725861
          0.73688 0.736089 0.734617 0.732778 0.731197 0.738567 0.738016 0.737024 0.73584 0.734833 0.739785 0.739382
          0.738671 0.737839 0.737123 0.740421 0.740088 0.739506 0.738827 0.738234 0.730054 0.728811 0.726445 0.723258
          0.719721 0.730164 0.728747 0.725963 0.722095 0.718063 0.730571 0.728858 0.725163 0.719219 0.714482 0.731551
          0.729627 0.724665 0.71194 0.709534 0.733214 0.731646 0.727949 0.720202 0.713387 0.735221 0.734143 0.731933
          0.728643 0.72581 0.737182 0.736467 0.735118 0.733383 0.73188 0.738831 0.738347 0.73747 0.736402 0.73546
          0.740007 0.739655 0.739029 0.73828 0.737602 0.740617 0.740324 0.739807 0.739191 0.738624 0.730479 0.729327
          0.727108 0.72405 0.720581 0.730649 0.729368 0.726833 0.723213 0.719076 0.731127 0.72964 0.726504 0.721557
          0.715728 0.73212 0.730513 0.72681 0.719769 0.71017 0.733717 0.732374 0.72946 0.724661 0.719584 0.73564
          0.734685 0.73278 0.73011 0.727606 0.737531 0.736888 0.735679 0.734132 0.732726 0.739125 0.738686 0.737889
          0.73691 0.736012 0.740259 0.739938 0.739365 0.73867 0.738019 0.740845 0.740578 0.740103 0.739527 0.738979
          0.730931 0.729851 0.727761 0.724856 0.721539 0.73114 0.729967 0.727644 0.724297 0.720309 0.731672 0.730365
          0.727673 0.72352 0.718122 0.73268 0.731331 0.728448 0.723667 0.71684 0.734211 0.733058 0.730682 0.727089
          0.722927 0.736042 0.735186 0.733517 0.73123 0.728928 0.737856 0.737262 0.736153 0.734731 0.733384 0.739394
          0.738984 0.738236 0.737311 0.736441 0.740492 0.740191 0.739649 0.738985 0.738352 0.741061 0.740809 0.740358
          0.739807 0.739272 0.731306 0.730266 0.72825 0.725437 0.722248 0.73153 0.730409 0.72818 0.724936 0.721009
          0.732078 0.730845 0.728306 0.724339 0.718913 0.733077 0.73182 0.729164 0.724809 0.718298 0.734555 0.733459
          0.7312 0.727739 0.723475 0.736327 0.735497 0.733867 0.731595 0.729222 0.738093 0.737512 0.736419 0.734999
          0.733634 0.739599 0.739197 0.738461 0.737543 0.736677 0.740676 0.740382 0.739851 0.739197 0.738573 0.741234
          0.740989 0.740549 0.740009 0.739484 0.731553 0.730526 0.728525 0.725727 0.722579 0.731773 0.730654 0.728409
          0.725085 0.720965 0.732305 0.731055 0.728423 0.724123 0.71774 0.733274 0.73197 0.729115 0.724119 0.716299
          0.734717 0.733553 0.731029 0.726738 0.720744 0.736468 0.735591 0.733804 0.73115 0.728239 0.738224 0.737621
          0.736461 0.734912 0.733418 0.739723 0.739313 0.738556 0.737601 0.73671 0.740794 0.740499 0.739964 0.739304
          0.738679 0.741349 0.741105 0.740667 0.740129 0.739607 0.731669 0.73064 0.728636 0.725846 0.722792 0.731879
          0.730746 0.72846 0.725072 0.721069 0.732389 0.731092 0.728302 0.723611 0.716992 0.733327 0.731923 0.728664
          0.722152 0.710002 0.73475 0.733467 0.730444 0.72411 0.710246 0.736504 0.735556 0.733525 0.730163 0.725837
          0.73827 0.737635 0.736384 0.734638 0.732902 0.739774 0.739353 0.738566 0.737561 0.736628 0.740848 0.740549
          0.740006 0.739334 0.738703 0.741402 0.741158 0.740719 0.740178 0.739657
        </DataArray>
        <DataArray type="Float32" Name="process rank" NumberOfComponents="1" format="ascii">
          2 2 2 2 2 2 2 2 2 2 2 2
          2 2 2 2 2 2 2 2 2 2 2 2
          2 2 2 2 2 2 2 2 2 2 2 2
          2 2 2 2 2 2 2 2 2 2 2 2
          2 2 2 2 2 2 2 2 2 2 2 2
          2 2 2 2 2 2 2 2 2 2 2 2
          2 2 2 2 2 2 2 2 2 2 2 2
          2 2 2 2 2 2 2 2 2 2 2 2
          2 2 2 2 2 2 2 2 2 2 2 2
          2 2 2 2 2 2 2 2 2 2 2 2
          2 2 2 2 2 2 2 2 2 2 2 2
          2 2 2 2 2 2 2 2 2 2 2 2
          2 2 2 2 2 2 2 2 2 2 2 2
          2 2 2 2 2 2 2 2 2 2 2 2
          2 2 2 2 2 2 2 2 2 2 2 2
          2 2 2 2 2 2 2 2 2 2 2 2
          2 2 2 2 2 2 2 2 2 2 2 2
          2 2 2 2 2 2 2 2 2 2 2 2
          2 2 2 2 2 2 2 2 2 2 2 2
          2 2 2 2 2 2 2 2 2 2 2 2
          2 2 2 2 2 2 2 2 2 2 2 2
          2 2 2 2 2 2 2 2 2 2 2 2
          2 2 2 2 2 2 2 2 2 2 2 2
          2 2 2 2 2 2 2 2 2 2 2 2
          2 2 2 2 2 2 2 2 2 2 2 2
          2 2 2 2 2 2 2 2 2 2 2 2
          2 2 2 2 2 2 2 2 2 2 2 2
          2 2 2 2 2 2 2 2 2 2 2 2
          2 2 2 2 2 2 2 2 2 2 2 2
          2 2 2 2 2 2 2 2 2 2 2 2
          2 2 2 2 2 2 2 2 2 2 2 2
          2 2 2 2 2 2 2 2 2 2 2 2
          2 2 2 2 2 2 2 2 2 2 2 2
          2 2 2 2 2 2 2 2 2 2 2 2
          2 2 2 2 2 2 2 2 2 2 2 2
          2 2 2 2 2 2 2 2 2 2 2 2
          2 2 2 2 2 2 2 2 2 2 2 2
          2 2 2 2 2 2 2 2 2 2 2 2
          2 2 2 2 2 2 2 2 2 2 2 2
          2 2 2 2 2 2 2 2 2 2 2 2
          2 2 2 2 2 2 2 2 2 2 2 2
          2 2 2 2 2 2 2 2
        </DataArray>
      </CellData>
      <Points>
        <DataArray type="Float32" Name="Coordinates" NumberOfComponents="3" format="ascii">
          -0.04 -0.04 -0.0789474 -0.032 -0.04 -0.0789474 -0.04 -0.032 -0.0789474 -0.032 -0.032 -0.0789474
          -0.04 -0.04 -0.0710526 -0.032 -0.04 -0.0710526 -0.04 -0.032 -0.0710526 -0.032 -0.032 -0.0710526
          -0.024 -0.04 -0.0789474 -0.024 -0.032 -0.0789474 -0.024 -0.04 -0.0710526 -0.024 -0.032 -0.0710526
          -0.016 -0.04 -0.0789474 -0.016 -0.032 -0.0789474 -0.016 -0.04 -0.0710526 -0.016 -0.032 -0.0710526
          -0.008 -0.04 -0.0789474 -0.008 -0.032 -0.0789474 -0.008 -0.04 -0.0710526 -0.008 -0.032 -0.0710526
          0 -0.04 -0.0789474 0 -0.032 -0.0789474 0 -0.04 -0.0710526 0 -0.032 -0.0710526
          -0.04 -0.024 -0.0789474 -0.032 -0.024 -0.0789474 -0.04 -0.024 -0.0710526 -0.032 -0.024 -0.0710526
          -0.024 -0.024 -0.0789474 -0.024 -0.024 -0.0710526 -0.016 -0.024 -0.0789474 -0.016 -0.024 -0.0710526
          -0.008 -0.024 -0.0789474 -0.008 -0.024 -0.0710526 0 -0.024 -0.0789474 0 -0.024 -0.0710526
          -0.04 -0.016 -0.0789474 -0.032 -0.016 -0.0789474 -0.04 -0.016 -0.0710526 -0.032 -0.016 -0.0710526
          -0.024 -0.016 -0.0789474 -0.024 -0.016 -0.0710526 -0.016 -0.016 -0.0789474 -0.016 -0.016 -0.0710526
          -0.008 -0.016 -0.0789474 -0.008 -0.016 -0.0710526 0 -0.016 -0.0789474 0 -0.016 -0.0710526
          -0.04 -0.008 -0.0789474 -0.032 -0.008 -0.0789474 -0.04 -0.008 -0.0710526 -0.032 -0.008 -0.0710526
          -0.024 -0.008 -0.0789474 -0.024 -0.008 -0.0710526 -0.016 -0.008 -0.0789474 -0.016 -0.008 -0.0710526
          -0.008 -0.008 -0.0789474 -0.008 -0.008 -0.0710526 0 -0.008 -0.0789474 0 -0.008 -0.0710526
          -0.04 0 -0.0789474 -0.032 0 -0.0789474 -0.04 0 -0.0710526 -0.032 0 -0.0710526
          -0.024 0 -0.0789474 -0.024 0 -0.0710526 -0.016 0 -0.0789474 -0.016 0 -0.0710526
          -0.008 0 -0.0789474 -0.008 0 -0.0710526 0 0 -0.0789474 0 0 -0.0710526
          -0.04 0.008 -0.0789474 -0.032 0.008 -0.0789474 -0.04 0.008 -0.0710526 -0.032 0.008 -0.0710526
          -0.024 0.008 -0.0789474 -0.024 0.008 -0.0710526 -0.016 0.008 -0.0789474 -0.016 0.008 -0.0710526
          -0.008 0.008 -0.0789474 -0.008 0.008 -0.0710526 0 0.008 -0.0789474 0 0.008 -0.0710526
          -0.04 0.016 -0.0789474 -0.032 0.016 -0.0789474 -0.04 0.016 -0.0710526 -0.032 0.016 -0.0710526
          -0.024 0.016 -0.0789474 -0.024 0.016 -0.0710526 -0.016 0.016 -0.0789474 -0.016 0.016 -0.0710526
          -0.008 0.016 -0.0789474 -0.008 0.016 -0.0710526 0 0.016 -0.0789474 0 0.016 -0.0710526
          -0.04 0.024 -0.0789474 -0.032 0.024 -0.0789474 -0.04 0.024 -0.0710526 -0.032 0.024 -0.0710526
          -0.024 0.024 -0.0789474 -0.024 0.024 -0.0710526 -0.016 0.024 -0.0789474 -0.016 0.024 -0.0710526
          -0.008 0.024 -0.0789474 -0.008 0.024 -0.0710526 0 0.024 -0.0789474 0 0.024 -0.0710526
          -0.04 0.032 -0.0789474 -0.032 0.032 -0.0789474 -0.04 0.032 -0.0710526 -0.032 0.032 -0.0710526
          -0.024 0.032 -0.0789474 -0.024 0.032 -0.0710526 -0.016 0.032 -0.0789474 -0.016 0.032 -0.0710526
          -0.008 0.032 -0.0789474 -0.008 0.032 -0.0710526 0 0.032 -0.0789474 0 0.032 -0.0710526
          -0.04 0.04 -0.0789474 -0.032 0.04 -0.0789474 -0.04 0.04 -0.0710526 -0.032 0.04 -0.0710526
          -0.024 0.04 -0.0789474 -0.024 0.04 -0.0710526 -0.016 0.04 -0.0789474 -0.016 0.04 -0.0710526
          -0.008 0.04 -0.0789474 -0.008 0.04 -0.0710526 0 0.04 -0.0789474 0 0.04 -0.0710526
          -0.04 -0.04 -0.0631579 -0.032 -0.04 -0.0631579 -0.04 -0.032 -0.0631579 -0.032 -0.032 -0.0631579
          -0.024 -0.04 -0.0631579 -0.024 -0.032 -0.0631579 -0.016 -0.04 -0.0631579 -0.016 -0.032 -0.0631579
          -0.008 -0.04 -0.0631579 -0.008 -0.032 -0.0631579 0 -0.04 -0.0631579 0 -0.032 -0.0631579
          -0.04 -0.024 -0.0631579 -0.032 -0.024 -0.0631579 -0.024 -0.024 -0.0631579 -0.016 -0.024 -0.0631579
          -0.008 -0.024 -0.0631579 0 -0.024 -0.0631579 -0.04 -0.016 -0.0631579 -0.032 -0.016 -0.0631579
          -0.024 -0.016 -0.0631579 -0.016 -0.016 -0.0631579 -0.008 -0.016 -0.0631579 0 -0.016 -0.0631579
          -0.04 -0.008 -0.0631579 -0.032 -0.008 -0.0631579 -0.024 -0.008 -0.0631579 -0.016 -0.008 -0.0631579
          -0.008 -0.008 -0.0631579 0 -0.008 -0.0631579 -0.04 0 -0.0631579 -0.032 0 -0.0631579
          -0.024 0 -0.0631579 -0.016 0 -0.0631579 -0.008 0 -0.0631579 0 0 -0.0631579
          -0.04 0.008 -0.0631579 -0.032 0.008 -0.0631579 -0.024 0.008 -0.0631579 -0.016 0.008 -0.0631579
          -0.008 0.008 -0.0631579 0 0.008 -0.0631579 -0.04 0.016 -0.0631579 -0.032 0.016 -0.0631579
          -0.024 0.016 -0.0631579 -0.016 0.016 -0.0631579 -0.008 0.016 -0.0631579 0 0.016 -0.0631579
          -0.04 0.024 -0.0631579 -0.032 0.024 -0.0631579 -0.024 0.024 -0.0631579 -0.016 0.024 -0.0631579
          -0.008 0.024 -0.0631579 0 0.024 -0.0631579 -0.04 0.032 -0.0631579 -0.032 0.032 -0.0631579
          -0.024 0.032 -0.0631579 -0.016 0.032 -0.0631579 -0.008 0.032 -0.0631579 0 0.032 -0.0631579
          -0.04 0.04 -0.0631579 -0.032 0.04 -0.0631579 -0.024 0.04 -0.0631579 -0.016 0.04 -0.0631579
          -0.008 0.04 -0.0631579 0 0.04 -0.0631579 -0.04 -0.04 -0.0552632 -0.032 -0.04 -0.0552632
          -0.04 -0.032 -0.0552632 -0.032 -0.032 -0.0552632 -0.024 -0.04 -0.0552632 -0.024 -0.032 -0.0552632
          -0.016 -0.04 -0.0552632 -0.016 -0.032 -0.0552632 -0.008 -0.04 -0.0552632 -0.008 -0.032 -0.0552632
          0 -0.04 -0.0552632 0 -0.032 -0.0552632 -0.04 -0.024 -0.0552632 -0.032 -0.024 -0.0552632
          -0.024 -0.024 -0.0552632 -0.016 -0.024 -0.0552632 -0.008 -0.024 -0.0552632 0 -0.024 -0.0552632
          -0.04 -0.016 -0.0552632 -0.032 -0.016 -0.0552632 -0.024 -0.016 -0.0552632 -0.016 -0.016 -0.0552632
          -0.008 -0.016 -0.0552632 0 -0.016 -0.0552632 -0.04 -0.008 -0.0552632 -0.032 -0.008 -0.0552632
          -0.024 -0.008 -0.0552632 -0.016 -0.008 -0.0552632 -0.008 -0.008 -0.0552632 0 -0.008 -0.0552632
          -0.04 0 -0.0552632 -0.032 0 -0.0552632 -0.024 0 -0.0552632 -0.016 0 -0.0552632
          -0.008 0 -0.0552632 0 0 -0.0552632 -0.04 0.008 -0.0552632 -0.032 0.008 -0.0552632
          -0.024 0.008 -0.0552632 -0.016 0.008 -0.0552632 -0.008 0.008 -0.0552632 0 0.008 -0.0552632
          -0.04 0.016 -0.0552632 -0.032 0.016 -0.0552632 -0.024 0.016 -0.0552632 -0.016 0.016 -0.0552632
          -0.008 0.016 -0.0552632 0 0.016 -0.0552632 -0.04 0.024 -0.0552632 -0.032 0.024 -0.0552632
          -0.024 0.024 -0.0552632 -0.016 0.024 -0.0552632 -0.008 0.024 -0.0552632 0 0.024 -0.0552632
          -0.04 0.032 -0.0552632 -0.032 0.032 -0.0552632 -0.024 0.032 -0.0552632 -0.016 0.032 -0.0552632
          -0.008 0.032 -0.0552632 0 0.032 -0.0552632 -0.04 0.04 -0.0552632 -0.032 0.04 -0.0552632
          -0.024 0.04 -0.0552632 -0.016 0.04 -0.0552632 -0.008 0.04 -0.0552632 0 0.04 -0.0552632
          -0.04 -0.04 -0.0473684 -0.032 -0.04 -0.0473684 -0.04 -0.032 -0.0473684 -0.032 -0.032 -0.0473684
          -0.024 -0.04 -0.0473684 -0.024 -0.032 -0.0473684 -0.016 -0.04 -0.0473684 -0.016 -0.032 -0.0473684
          -0.008 -0.04 -0.0473684 -0.008 -0.032 -0.0473684 0 -0.04 -0.0473684 0 -0.032 -0.0473684
          -0.04 -0.024 -0.0473684 -0.032 -0.024 -0.0473684 -0.024 -0.024 -0.0473684 -0.016 -0.024 -0.0473684
          -0.008 -0.024 -0.0473684 0 -0.024 -0.0473684 -0.04 -0.016 -0.0473684 -0.032 -0.016 -0.0473684
          -0.024 -0.016 -0.0473684 -0.016 -0.016 -0.0473684 -0.008 -0.016 -0.0473684 0 -0.016 -0.0473684
          -0.04 -0.008 -0.0473684 -0.032 -0.008 -0.0473684 -0.024 -0.008 -0.0473684 -0.016 -0.008 -0.0473684
          -0.008 -0.008 -0.0473684 0 -0.008 -0.0473684 -0.04 0 -0.0473684 -0.032 0 -0.0473684
          -0.024 0 -0.0473684 -0.016 0 -0.0473684 -0.008 0 -0.0473684 0 0 -0.0473684
          -0.04 0.008 -0.0473684 -0.032 0.008 -0.0473684 -0.024 0.008 -0.0473684 -0.016 0.008 -0.0473684
          -0.008 0.008 -0.0473684 0 0.008 -0.0473684 -0.04 0.016 -0.0473684 -0.032 0.016 -0.0473684
          -0.024 0.016 -0.0473684 -0.016 0.016 -0.0473684 -0.008 0.016 -0.0473684 0 0.016 -0.0473684
          -0.04 0.024 -0.0473684 -0.032 0.024 -0.0473684 -0.024 0.024 -0.0473684 -0.016 0.024 -0.0473684
          -0.008 0.024 -0.0473684 0 0.024 -0.0473684 -0.04 0.032 -0.0473684 -0.032 0.032 -0.0473684
          -0.024 0.032 -0.0473684 -0.016 0.032 -0.0473684 -0.008 0.032 -0.0473684 0 0.032 -0.0473684
          -0.04 0.04 -0.0473684 -0.032 0.04 -0.0473684 -0.024 0.04 -0.0473684 -0.016 0.04 -0.0473684
          -0.008 0.04 -0.0473684 0 0.04 -0.0473684 -0.04 -0.04 -0.0394737 -0.032 -0.04 -0.0394737
          -0.04 -0.032 -0.0394737 -0.032 -0.032 -0.0394737 -0.024 -0.04 -0.0394737 -0.024 -0.032 -0.0394737
          -0.016 -0.04 -0.0394737 -0.016 -0.032 -0.0394737 -0.008 -0.04 -0.0394737 -0.008 -0.032 -0.0394737
          0 -0.04 -0.0394737 0 -0.032 -0.0394737 -0.04 -0.024 -0.0394737 -0.032 -0.024 -0.0394737
          -0.024 -0.024 -0.0394737 -0.016 -0.024 -0.0394737 -0.008 -0.024 -0.0394737 0 -0.024 -0.0394737
          -0.04 -0.016 -0.0394737 -0.032 -0.016 -0.0394737 -0.024 -0.016 -0.0394737 -0.016 -0.016 -0.0394737
          -0.008 -0.016 -0.0394737 0 -0.016 -0.0394737 -0.04 -0.008 -0.0394737 -0.032 -0.008 -0.0394737
          -0.024 -0.008 -0.0394737 -0.016 -0.008 -0.0394737 -0.008 -0.008 -0.0394737 0 -0.008 -0.0394737
          -0.04 0 -0.0394737 -0.032 0 -0.0394737 -0.024 0 -0.0394737 -0.016 0 -0.0394737
          -0.008 0 -0.0394737 0 0 -0.0394737 -0.04 0.008 -0.0394737 -0.032 0.008 -0.0394737
          -0.024 0.008 -0.0394737 -0.016 0.008 -0.0394737 -0.008 0.008 -0.0394737 0 0.008 -0.0394737
          -0.04 0.016 -0.0394737 -0.032 0.016 -0.0394737 -0.024 0.016 -0.0394737 -0.016 0.016 -0.0394737
          -0.008 0.016 -0.0394737 0 0.016 -0.0394737 -0.04 0.024 -0.0394737 -0.032 0.024 -0.0394737
          -0.024 0.024 -0.0394737 -0.016 0.024 -0.0394737 -0.008 0.024 -0.0394737 0 0.024 -0.0394737
          -0.04 0.032 -0.0394737 -0.032 0.032 -0.0394737 -0.024 0.032 -0.0394737 -0.016 0.032 -0.0394737
          -0.008 0.032 -0.0394737 0 0.032 -0.0394737 -0.04 0.04 -0.0394737 -0.032 0.04 -0.0394737
          -0.024 0.04 -0.0394737 -0.016 0.04 -0.0394737 -0.008 0.04 -0.0394737 0 0.04 -0.0394737
          -0.04 -0.04 -0.0315789 -0.032 -0.04 -0.0315789 -0.04 -0.032 -0.0315789 -0.032 -0.032 -0.0315789
          -0.024 -0.04 -0.0315789 -0.024 -0.032 -0.0315789 -0.016 -0.04 -0.0315789 -0.016 -0.032 -0.0315789
          -0.008 -0.04 -0.0315789 -0.008 -0.032 -0.0315789 0 -0.04 -0.0315789 0 -0.032 -0.0315789
          -0.04 -0.024 -0.0315789 -0.032 -0.024 -0.0315789 -0.024 -0.024 -0.0315789 -0.016 -0.024 -0.0315789
          -0.008 -0.024 -0.0315789 0 -0.024 -0.0315789 -0.04 -0.016 -0.0315789 -0.032 -0.016 -0.0315789
          -0.024 -0.016 -0.0315789 -0.016 -0.016 -0.0315789 -0.008 -0.016 -0.0315789 0 -0.016 -0.0315789
          -0.04 -0.008 -0.0315789 -0.032 -0.008 -0.0315789 -0.024 -0.008 -0.0315789 -0.016 -0.008 -0.0315789
          -0.008 -0.008 -0.0315789 0 -0.008 -0.0315789 -0.04 0 -0.0315789 -0.032 0 -0.0315789
          -0.024 0 -0.0315789 -0.016 0 -0.0315789 -0.008 0 -0.0315789 0 0 -0.0315789
          -0.04 0.008 -0.0315789 -0.032 0.008 -0.0315789 -0.024 0.008 -0.0315789 -0.016 0.008 -0.0315789
          -0.008 0.008 -0.0315789 0 0.008 -0.0315789 -0.04 0.016 -0.0315789 -0.032 0.016 -0.0315789
          -0.024 0.016 -0.0315789 -0.016 0.016 -0.0315789 -0.008 0.016 -0.0315789 0 0.016 -0.0315789
          -0.04 0.024 -0.0315789 -0.032 0.024 -0.0315789 -0.024 0.024 -0.0315789 -0.016 0.024 -0.0315789
          -0.008 0.024 -0.0315789 0 0.024 -0.0315789 -0.04 0.032 -0.0315789 -0.032 0.032 -0.0315789
          -0.024 0.032 -0.0315789 -0.016 0.032 -0.0315789 -0.008 0.032 -0.0315789 0 0.032 -0.0315789
          -0.04 0.04 -0.0315789 -0.032 0.04 -0.0315789 -0.024 0.04 -0.0315789 -0.016 0.04 -0.0315789
          -0.008 0.04 -0.0315789 0 0.04 -0.0315789 -0.04 -0.04 -0.0236842 -0.032 -0.04 -0.0236842
          -0.04 -0.032 -0.0236842 -0.032 -0.032 -0.0236842 -0.024 -0.04 -0.0236842 -0.024 -0.032 -0.0236842
          -0.016 -0.04 -0.0236842 -0.016 -0.032 -0.0236842 -0.008 -0.04 -0.0236842 -0.008 -0.032 -0.0236842
          0 -0.04 -0.0236842 0 -0.032 -0.0236842 -0.04 -0.024 -0.0236842 -0.032 -0.024 -0.0236842
          -0.024 -0.024 -0.0236842 -0.016 -0.024 -0.0236842 -0.008 -0.024 -0.0236842 0 -0.024 -0.0236842
          -0.04 -0.016 -0.0236842 -0.032 -0.016 -0.0236842 -0.024 -0.016 -0.0236842 -0.016 -0.016 -0.0236842
          -0.008 -0.016 -0.0236842 0 -0.016 -0.0236842 -0.04 -0.008 -0.0236842 -0.032 -0.008 -0.0236842
          -0.024 -0.008 -0.0236842 -0.016 -0.008 -0.0236842 -0.008 -0.008 -0.0236842 0 -0.008 -0.0236842
          -0.04 0 -0.0236842 -0.032 0 -0.0236842 -0.024 0 -0.0236842 -0.016 0 -0.0236842
          -0.008 0 -0.0236842 0 0 -0.0236842 -0.04 0.008 -0.0236842 -0.032 0.008 -0.0236842
          -0.024 0.008 -0.0236842 -0.016 0.008 -0.0236842 -0.008 0.008 -0.0236842 0 0.008 -0.0236842
          -0.04 0.016 -0.0236842 -0.032 0.016 -0.0236842 -0.024 0.016 -0.0236842 -0.016 0.016 -0.0236842
          -0.008 0.016 -0.0236842 0 0.016 -0.0236842 -0.04 0.024 -0.0236842 -0.032 0.024 -0.0236842
          -0.024 0.024 -0.0236842 -0.016 0.024 -0.0236842 -0.008 0.024 -0.0236842 0 0.024 -0.0236842
          -0.04 0.032 -0.0236842 -0.032 0.032 -0.0236842 -0.024 0.032 -0.0236842 -0.016 0.032 -0.0236842
          -0.008 0.032 -0.0236842 0 0.032 -0.0236842 -0.04 0.04 -0.0236842 -0.032 0.04 -0.0236842
          -0.024 0.04 -0.0236842 -0.016 0.04 -0.0236842 -0.008 0.04 -0.0236842 0 0.04 -0.0236842
          -0.04 -0.04 -0.0157895 -0.032 -0.04 -0.0157895 -0.04 -0.032 -0.0157895 -0.032 -0.032 -0.0157895
          -0.024 -0.04 -0.0157895 -0.024 -0.032 -0.0157895 -0.016 -0.04 -0.0157895 -0.016 -0.032 -0.0157895
          -0.008 -0.04 -0.0157895 -0.008 -0.032 -0.0157895 0 -0.04 -0.0157895 0 -0.032 -0.0157895
          -0.04 -0.024 -0.0157895 -0.032 -0.024 -0.0157895 -0.024 -0.024 -0.0157895 -0.016 -0.024 -0.0157895
          -0.008 -0.024 -0.0157895 0 -0.024 -0.0157895 -0.04 -0.016 -0.0157895 -0.032 -0.016 -0.0157895
          -0.024 -0.016 -0.0157895 -0.016 -0.016 -0.0157895 -0.008 -0.016 -0.0157895 0 -0.016 -0.0157895
          -0.04 -0.008 -0.0157895 -0.032 -0.008 -0.0157895 -0.024 -0.008 -0.0157895 -0.016 -0.008 -0.0157895
          -0.008 -0.008 -0.0157895 0 -0.008 -0.0157895 -0.04 0 -0.0157895 -0.032 0 -0.0157895
          -0.024 0 -0.0157895 -0.016 0 -0.0157895 -0.008 0 -0.0157895 0 0 -0.0157895
          -0.04 0.008 -0.0157895 -0.032 0.008 -0.0157895 -0.024 0.008 -0.0157895 -0.016 0.008 -0.0157895
          -0.008 0.008 -0.0157895 0 0.008 -0.0157895 -0.04 0.016 -0.0157895 -0.032 0.016 -0.0157895
          -0.024 0.016 -0.0157895 -0.016 0.016 -0.0157895 -0.008 0.016 -0.0157895 0 0.016 -0.0157895
          -0.04 0.024 -0.0157895 -0.032 0.024 -0.0157895 -0.024 0.024 -0.0157895 -0.016 0.024 -0.0157895
          -0.008 0.024 -0.0157895 0 0.024 -0.0157895 -0.04 0.032 -0.0157895 -0.032 0.032 -0.0157895
          -0.024 0.032 -0.0157895 -0.016 0.032 -0.0157895 -0.008 0.032 -0.0157895 0 0.032 -0.0157895
          -0.04 0.04 -0.0157895 -0.032 0.04 -0.0157895 -0.024 0.04 -0.0157895 -0.016 0.04 -0.0157895
          -0.008 0.04 -0.0157895 0 0.04 -0.0157895 -0.04 -0.04 -0.00789474 -0.032 -0.04 -0.00789474
          -0.04 -0.032 -0.00789474 -0.032 -0.032 -0.00789474 -0.024 -0.04 -0.00789474 -0.024 -0.032 -0.00789474
          -0.016 -0.04 -0.00789474 -0.016 -0.032 -0.00789474 -0.008 -0.04 -0.00789474 -0.008 -0.032 -0.00789474
          0 -0.04 -0.00789474 0 -0.032 -0.00789474 -0.04 -0.024 -0.00789474 -0.032 -0.024 -0.00789474
          -0.024 -0.024 -0.00789474 -0.016 -0.024 -0.00789474 -0.008 -0.024 -0.00789474 0 -0.024 -0.00789474
          -0.04 -0.016 -0.00789474 -0.032 -0.016 -0.00789474 -0.024 -0.016 -0.00789474 -0.016 -0.016 -0.00789474
          -0.008 -0.016 -0.00789474 0 -0.016 -0.00789474 -0.04 -0.008 -0.00789474 -0.032 -0.008 -0.00789474
          -0.024 -0.008 -0.00789474 -0.016 -0.008 -0.00789474 -0.008 -0.008 -0.00789474 0 -0.008 -0.00789474
          -0.04 0 -0.00789474 -0.032 0 -0.00789474 -0.024 0 -0.00789474 -0.016 0 -0.00789474
          -0.008 0 -0.00789474 0 0 -0.00789474 -0.04 0.008 -0.00789474 -0.032 0.008 -0.00789474
          -0.024 0.008 -0.00789474 -0.016 0.008 -0.00789474 -0.008 0.008 -0.00789474 0 0.008 -0.00789474
          -0.04 0.016 -0.00789474 -0.032 0.016 -0.00789474 -0.024 0.016 -0.00789474 -0.016 0.016 -0.00789474
          -0.008 0.016 -0.00789474 0 0.016 -0.00789474 -0.04 0.024 -0.00789474 -0.032 0.024 -0.00789474
          -0.024 0.024 -0.00789474 -0.016 0.024 -0.00789474 -0.008 0.024 -0.00789474 0 0.024 -0.00789474
          -0.04 0.032 -0.00789474 -0.032 0.032 -0.00789474 -0.024 0.032 -0.00789474 -0.016 0.032 -0.00789474
          -0.008 0.032 -0.00789474 0 0.032 -0.00789474 -0.04 0.04 -0.00789474 -0.032 0.04 -0.00789474
          -0.024 0.04 -0.00789474 -0.016 0.04 -0.00789474 -0.008 0.04 -0.00789474 0 0.04 -0.00789474
          -0.04 -0.04 3.46945e-18 -0.032 -0.04 3.46945e-18 -0.04 -0.032 3.46945e-18 -0.032 -0.032 3.46945e-18
          -0.024 -0.04 3.46945e-18 -0.024 -0.032 3.46945e-18 -0.016 -0.04 3.46945e-18 -0.016 -0.032 3.46945e-18
          -0.008 -0.04 3.46945e-18 -0.008 -0.032 3.46945e-18 0 -0.04 3.46945e-18 0 -0.032 3.46945e-18
          -0.04 -0.024 3.46945e-18 -0.032 -0.024 3.46945e-18 -0.024 -0.024 3.46945e-18 -0.016 -0.024 3.46945e-18
          -0.008 -0.024 3.46945e-18 0 -0.024 3.46945e-18 -0.04 -0.016 3.46945e-18 -0.032 -0.016 3.46945e-18
          -0.024 -0.016 3.46945e-18 -0.016 -0.016 3.46945e-18 -0.008 -0.016 3.46945e-18 0 -0.016 3.46945e-18
          -0.04 -0.008 3.46945e-18 -0.032 -0.008 3.46945e-18 -0.024 -0.008 3.46945e-18 -0.016 -0.008 3.46945e-18
          -0.008 -0.008 3.46945e-18 0 -0.008 3.46945e-18 -0.04 0 3.46945e-18 -0.032 0 3.46945e-18
          -0.024 0 3.46945e-18 -0.016 0 3.46945e-18 -0.008 0 3.46945e-18 0 0 3.46945e-18
          -0.04 0.008 3.46945e-18 -0.032 0.008 3.46945e-18 -0.024 0.008 3.46945e-18 -0.016 0.008 3.46945e-18
          -0.008 0.008 3.46945e-18 0 0.008 3.46945e-18 -0.04 0.016 3.46945e-18 -0.032 0.016 3.46945e-18
          -0.024 0.016 3.46945e-18 -0.016 0.016 3.46945e-18 -0.008 0.016 3.46945e-18 0 0.016 3.46945e-18
          -0.04 0.024 3.46945e-18 -0.032 0.024 3.46945e-18 -0.024 0.024 3.46945e-18 -0.016 0.024 3.46945e-18
          -0.008 0.024 3.46945e-18 0 0.024 3.46945e-18 -0.04 0.032 3.46945e-18 -0.032 0.032 3.46945e-18
          -0.024 0.032 3.46945e-18 -0.016 0.032 3.46945e-18 -0.008 0.032 3.46945e-18 0 0.032 3.46945e-18