<?xml version="1.0"?>
<VTKFile type="UnstructuredGrid" version="0.1" byte_order="LittleEndian">
  <UnstructuredGrid>
    <Piece NumberOfCells="500" NumberOfPoints="726">
      <CellData Scalars="p (Pa)">
        <DataArray type="Float32" Name="p (Pa)" NumberOfComponents="1" format="ascii">
          -938045 -961298 -961774 -919478 -892980 -998691 -1.00902e+06 -980118 -927848 -897112 -1.13377e+06 -1.12139e+06
          -1.03197e+06 -942434 -899275 -1.19761e+06 -1.21182e+06 -1.05414e+06 -935617 -882810 -1.20466e+06 -1.12412e+06 -1.005e+06 -889912
          -838536 -1.11804e+06 -942143 -860074 -800573 -770234 -858711 -792537 -749693 -719933 -704098 -723861
          -698478 -677237 -661758 -653384 -654675 -644749 -633948 -625310 -620508 -625185 -620450 -613761
          -607899 -604541 -999123 -1.06159e+06 -1.13676e+06 -1.02529e+06 -976644 -1.05511e+06 -1.10594e+06 -1.10915e+06 -1.02218e+06 -976755
          -1.17463e+06 -1.21961e+06 -1.17369e+06 -1.02475e+06 -969343 -1.19862e+06 -1.20751e+06 -1.08062e+06 -975977 -926128 -1.19525e+06 -1.06912e+06
          -962376 -890951 -855098 -959124 -893984 -838454 -798595 -777489 -798180 -770801 -743253 -722112
          -710553 -703330 -692033 -678381 -667113 -660782 -650075 -645688 -638700 -632357 -628666 -626094
          -624265 -619949 -615641 -613047 -1.0395e+06 -1.13407e+06 -1.2112e+06 -1.10935e+06 -1.04856e+06 -1.09008e+06 -1.17772e+06 -1.22688e+06
          -1.11254e+06 -1.05597e+06 -1.18088e+06 -1.21683e+06 -1.18268e+06 -1.10459e+06 -1.05763e+06 -1.19826e+06 -1.18222e+06 -1.09472e+06 -1.0415e+06 -984202
          -1.05354e+06 -1.00704e+06 -949313 -908395 -877731 -875159 -854617 -824751 -800158 -784561 -758491 -750059
          -735195 -721741 -713591 -685425 -682479 -675228 -668037 -663651 -642538 -642134 -638612 -634632
          -632118 -622674 -623268 -621269 -618635 -616900 -1.05075e+06 -1.14823e+06 -1.1923e+06 -1.12607e+06 -1.08304e+06 -1.10644e+06
          -1.21181e+06 -1.23988e+06 -1.16476e+06 -1.11654e+06 -1.18155e+06 -1.22959e+06 -1.24034e+06 -1.22684e+06 -1.19751e+06 -1.20365e+06 -1.22613e+06 -1.1708e+06
          -1.19991e+06 -1.06279e+06 -1.01255e+06 -995060 -961184 -942237 -900793 -841794 -835311 -818560 -802996 -788717
          -736737 -735741 -728000 -719420 -713243 -672505 -673621 -670371 -666037 -663038 -635014 -636947
          -635840 -633674 -632098 -617615 -619833 -619586 -618317 -617309 -1.03373e+06 -1.11171e+06 -1.14149e+06 -1.10063e+06
          -1.06775e+06 -1.0853e+06 -1.18507e+06 -1.21113e+06 -1.13495e+06 -1.08551e+06 -1.17439e+06 -1.21862e+06 -1.24939e+06 -1.17512e+06 -1.1007e+06 -1.22986e+06
          -1.19891e+06 -1.20495e+06 -1.19648e+06 -1.03516e+06 -1.01766e+06 -989219 -962164 -933814 -889848 -828703 -822742 -809650
          -795044 -781484 -723638 -724736 -719829 -713187 -708029 -662868 -665673 -664414 -661611 -659426
          -628205 -631330 -631619 -630577 -629613 -612242 -615392 -616253 -615900 -615398 -1.00869e+06 -1.07592e+06
          -1.10827e+06 -1.06104e+06 -1.02869e+06 -1.05934e+06 -1.15358e+06 -1.20747e+06 -1.09168e+06 -1.03403e+06 -1.15641e+06 -1.2503e+06 -1.21359e+06 -1.08683e+06
          -1.01817e+06 -1.19622e+06 -1.21544e+06 -1.10784e+06 -1.02044e+06 -955180 -975956 -961081 -918487 -880887 -853082 -807118
          -804977 -790754 -775360 -764391 -711062 -713562 -709360 -703248 -698824 -654556 -658130 -657664
          -655509 -653752 -622136 -625804 -626762 -626292 -625661 -607185 -610787 -612233 -612390 -612181
          -979594 -1.0269e+06 -1.03263e+06 -1.00171e+06 -979114 -1.02784e+06 -1.08999e+06 -1.07515e+06 -1.0105e+06 -975208 -1.13147e+06 -1.20126e+06
          -1.09397e+06 -995881 -951508 -1.1959e+06 -1.1415e+06 -1.00966e+06 -933756 -896156 -943362 -924310 -876730 -839712
          -819124 -789446 -787612 -771868 -756049 -746437 -701096 -703728 -699184 -692953 -688802 -647991
          -651650 -651234 -649173 -647546 -617180 -620958 -622092 -621801 -621292 -602910 -606640 -608295
          -608657 -608573 -956222 -984587 -977189 -953376 -936706 -1.00506e+06 -1.02774e+06 -995561 -953295 -929263
          -1.11698e+06 -1.1071e+06 -1.00669e+06 -937489 -905517 -1.19576e+06 -1.09256e+06 -959042 -888809 -858483 -935307 -906811
          -852220 -813804 -794963 -783522 -778258 -759112 -741831 -732269 -696363 -697601 -691672 -684686
          -680368 -644032 -647142 -646216 -643857 -642136 -613751 -617325 -618301 -617931 -617402 -599757
          -603404 -605025 -605390 -605320 -944747 -960866 -945488 -922661 -908131 -1.01049e+06 -1.00844e+06 -960656
          -920831 -900066 -1.19555e+06 -1.13578e+06 -979859 -907627 -878138 -1.19527e+06 -1.19202e+06 -953971 -867755 -836824
          -959880 -921599 -844848 -799973 -780270 -791898 -778829 -753251 -733289 -723057 -697408 -695677
          -687465 -679312 -674595 -642780 -644852 -643075 -640222 -638305 -611926 -615119 -615772 -615201
          -614587 -597834 -601302 -602775 -603048 -602939 -933157 -944878 -928970 -907369 -893870 -984373
          -978986 -939507 -904392 -885637 -1.10858e+06 -1.04392e+06 -948557 -890482 -864468 -1.2002e+06 -1.06103e+06 -921312
          -853282 -825738 -1.01246e+06 -908947 -834658 -791932 -772871 -808662 -779136 -749774 -728905 -718459
          -701335 -695572 -685545 -676665 -671704 -643124 -644109 -641638 -638429 -636370 -611326 -614179
          -614567 -613838 -613155 -597012 -600332 -601678 -601870 -601723
        </DataArray>
        <DataArray type="Float32" Name="saturation" NumberOfComponents="1" format="ascii">
          0.720298 0.719263 0.719242 0.721143 0.722377 0.71765 0.717215 0.718444 0.72076 0.722182 0.712287 0.712751
          0.716265 0.720101 0.722081 0.709972 0.709473 0.715366 0.720408 0.722861 0.709724 0.712648 0.717384 0.722523
          0.725031 0.712878 0.720114 0.723962 0.726984 0.72861 0.724029 0.727408 0.729746 0.731447 0.732379 0.731218
          0.732715 0.734008 0.734974 0.735506 0.735424 0.736062 0.736766 0.737338 0.737659 0.737346 0.737663 0.738114
          0.738513 0.738743 0.717632 0.715068 0.712175 0.716539 0.718594 0.715327 0.713337 0.713215 0.716668 0.718589
          0.710791 0.709202 0.710824 0.716561 0.718911 0.709936 0.709624 0.714317 0.718623 0.720838 0.710055 0.714769
          0.719216 0.722473 0.724207 0.719359 0.72233 0.725036 0.727088 0.728215 0.72711 0.728579 0.730108 0.73132
          0.731996 0.732425 0.733103 0.733937 0.734638 0.735036 0.735718 0.736001 0.736455 0.736871 0.737115 0.737286
          0.737407 0.737696 0.737987 0.738162 0.715957 0.712276 0.709495 0.713208 0.71559 0.713948 0.710679 0.708951
          0.713086 0.715293 0.710566 0.709299 0.710502 0.713389 0.715226 0.709949 0.710518 0.713769 0.715876 0.718268
          0.71539 0.717298 0.719793 0.721655 0.723104 0.723228 0.72423 0.72573 0.727005 0.727834 0.729256 0.729725
          0.730566 0.731341 0.731818 0.733505 0.733685 0.734132 0.73458 0.734855 0.736205 0.736231 0.736461 0.736721
          0.736887 0.737514 0.737474 0.737608 0.737785 0.737902 0.715502 0.711751 0.71016 0.712575 0.714222 0.713319
          0.709473 0.708506 0.711147 0.712934 0.710542 0.708858 0.70849 0.708953 0.709975 0.709759 0.708977 0.710928
          0.709891 0.71502 0.717068 0.717804 0.719268 0.72011 0.72201 0.724868 0.725194 0.726048 0.726856 0.727612
          0.730478 0.730535 0.730979 0.731476 0.731838 0.734301 0.734232 0.734434 0.734705 0.734894 0.736696 0.736569
          0.736642 0.736784 0.736888 0.737853 0.737704 0.737721 0.737806 0.737874 0.716192 0.713117 0.712 0.713541
          0.714823 0.714134 0.710416 0.709497 0.712243 0.714126 0.710799 0.709237 0.708184 0.710773 0.713539 0.708849
          0.709926 0.709713 0.710012 0.716134 0.716855 0.718053 0.719225 0.720489 0.722526 0.725529 0.725833 0.726509
          0.727275 0.728 0.731231 0.731168 0.731453 0.731841 0.732146 0.734904 0.734728 0.734807 0.734984 0.735122
          0.737145 0.736939 0.73692 0.736988 0.737052 0.738217 0.738003 0.737945 0.737969 0.738003 0.717229 0.714501
          0.713249 0.71509 0.716399 0.715158 0.711555 0.709625 0.713886 0.71618 0.711451 0.708153 0.709411 0.714074
          0.716834 0.710021 0.709347 0.713265 0.71674 0.719533 0.718624 0.719273 0.721188 0.722953 0.724306 0.726641
          0.726753 0.727503 0.728331 0.72893 0.731966 0.731819 0.732067 0.73243 0.732694 0.735431 0.735204 0.735234
          0.735371 0.735483 0.73755 0.737305 0.737241 0.737272 0.737314 0.738562 0.738316 0.738217 0.738207 0.738221
          0.718467 0.716473 0.716238 0.717523 0.718487 0.716434 0.713952 0.714531 0.717154 0.718656 0.712373 0.709843
          0.713798 0.71777 0.719696 0.710032 0.712 0.717189 0.720492 0.722227 0.720059 0.720921 0.723153 0.724972
          0.726019 0.727573 0.727671 0.72852 0.729391 0.729929 0.732558 0.732401 0.732673 0.733048 0.733299 0.735852
          0.735617 0.735644 0.735776 0.735881 0.737883 0.737629 0.737553 0.737572 0.737606 0.738855 0.738599 0.738486
          0.738461 0.738467 0.719487 0.718252 0.71857 0.719613 0.720358 0.717382 0.716438 0.717783 0.719617 0.720695
          0.712918 0.713293 0.717313 0.720323 0.721789 0.710037 0.713852 0.719363 0.722575 0.72404 0.720422 0.721728
          0.724349 0.726293 0.72728 0.72789 0.728174 0.729221 0.730189 0.730734 0.732842 0.732768 0.733125 0.73355
          0.733815 0.736108 0.735907 0.735967 0.736119 0.736231 0.738114 0.737873 0.737807 0.737832 0.737868 0.739073
          0.738821 0.73871 0.738685 0.73869 0.719997 0.719282 0.719964 0.720997 0.721667 0.717154 0.71724 0.719292
          0.72108 0.722044 0.710045 0.712212 0.718455 0.72169 0.723085 0.710054 0.710169 0.719587 0.723587 0.725118
          0.719326 0.721045 0.724715 0.727015 0.728065 0.727442 0.728143 0.729547 0.730675 0.731265 0.732779 0.732883
          0.73338 0.73388 0.734171 0.736189 0.736055 0.73617 0.736355 0.736481 0.738238 0.738022 0.737978 0.738016
          0.738058 0.739207 0.738966 0.738865 0.738846 0.738853 0.720519 0.719991 0.720709 0.721702 0.722335 0.718261
          0.718493 0.720232 0.721841 0.722726 0.713237 0.715778 0.719827 0.722496 0.723747 0.70988 0.71509 0.721058
          0.724296 0.72568 0.717071 0.721629 0.725227 0.727441 0.728466 0.72656 0.728126 0.729741 0.730927 0.731532
          0.732544 0.732889 0.733498 0.734043 0.734351 0.736167 0.736103 0.736263 0.736472 0.736607 0.738279 0.738085
          0.738059 0.738108 0.738155 0.739264 0.739033 0.73894 0.738927 0.738937
        </DataArray>
        <DataArray type="Float32" Name="process rank" NumberOfComponents="1" format="ascii">
          3 3 3 3 3 3 3 3 3 3 3 3
          3 3 3 3 3 3 3 3 3 3 3 3
          3 3 3 3 3 3 3 3 3 3 3 3
          3 3 3 3 3 3 3 3 3 3 3 3
          3 3 3 3 3 3 3 3 3 3 3 3
          3 3 3 3 3 3 3 3 3 3 3 3
          3 3 3 3 3 3 3 3 3 3 3 3
          3 3 3 3 3 3 3 3 3 3 3 3
          3 3 3 3 3 3 3 3 3 3 3 3
          3 3 3 3 3 3 3 3 3 3 3 3
          3 3 3 3 3 3 3 3 3 3 3 3
          3 3 3 3 3 3 3 3 3 3 3 3
          3 3 3 3 3 3 3 3 3 3 3 3
          3 3 3 3 3 3 3 3 3 3 3 3
          3 3 3 3 3 3 3 3 3 3 3 3
          3 3 3 3 3 3 3 3 3 3 3 3
          3 3 3 3 3 3 3 3 3 3 3 3
          3 3 3 3 3 3 3 3 3 3 3 3
          3 3 3 3 3 3 3 3 3 3 3 3
          3 3 3 3 3 3 3 3 3 3 3 3
          3 3 3 3 3 3 3 3 3 3 3 3
          3 3 3 3 3 3 3 3 3 3 3 3
          3 3 3 3 3 3 3 3 3 3 3 3
          3 3 3 3 3 3 3 3 3 3 3 3
          3 3 3 3 3 3 3 3 3 3 3 3
          3 3 3 3 3 3 3 3 3 3 3 3
          3 3 3 3 3 3 3 3 3 3 3 3
          3 3 3 3 3 3 3 3 3 3 3 3
          3 3 3 3 3 3 3 3 3 3 3 3
          3 3 3 3 3 3 3 3 3 3 3 3
          3 3 3 3 3 3 3 3 3 3 3 3
          3 3 3 3 3 3 3 3 3 3 3 3
          3 3 3 3 3 3 3 3 3 3 3 3
          3 3 3 3 3 3 3 3 3 3 3 3
          3 3 3 3 3 3 3 3 3 3 3 3
          3 3 3 3 3 3 3 3 3 3 3 3
          3 3 3 3 3 3 3 3 3 3 3 3
          3 3 3 3 3 3 3 3 3 3 3 3
          3 3 3 3 3 3 3 3 3 3 3 3
          3 3 3 3 3 3 3 3 3 3 3 3
          3 3 3 3 3 3 3 3 3 3 3 3
          3 3 3 3 3 3 3 3
        </DataArray>
      </CellData>
      <Points>
        <DataArray type="Float32" Name="Coordinates" NumberOfComponents="3" format="ascii">
          0 -0.04 -0.0789474 0.008 -0.04 -0.0789474 0 -0.032 -0.0789474 0.008 -0.032 -0.0789474
          0 -0.04 -0.0710526 0.008 -0.04 -0.0710526 0 -0.032 -0.0710526 0.008 -0.032 -0.0710526
          0.016 -0.04 -0.0789474 0.016 -0.032 -0.0789474 0.016 -0.04 -0.0710526 0.016 -0.032 -0.0710526
          0.024 -0.04 -0.0789474 0.024 -0.032 -0.0789474 0.024 -0.04 -0.0710526 0.024 -0.032 -0.0710526
          0.032 -0.04 -0.0789474 0.032 -0.032 -0.0789474 0.032 -0.04 -0.0710526 0.032 -0.032 -0.0710526
          0.04 -0.04 -0.0789474 0.04 -0.032 -0.0789474 0.04 -0.04 -0.0710526 0.04 -0.032 -0.0710526
          0 -0.024 -0.0789474 0.008 -0.024 -0.0789474 0 -0.024 -0.0710526 0.008 -0.024 -0.0710526
          0.016 -0.024 -0.0789474 0.016 -0.024 -0.0710526 0.024 -0.024 -0.0789474 0.024 -0.024 -0.0710526
          0.032 -0.024 -0.0789474 0.032 -0.024 -0.0710526 0.04 -0.024 -0.0789474 0.04 -0.024 -0.0710526
          0 -0.016 -0.0789474 0.008 -0.016 -0.0789474 0 -0.016 -0.0710526 0.008 -0.016 -0.0710526
          0.016 -0.016 -0.0789474 0.016 -0.016 -0.0710526 0.024 -0.016 -0.0789474 0.024 -0.016 -0.0710526
          0.032 -0.016 -0.0789474 0.032 -0.016 -0.0710526 0.04 -0.016 -0.0789474 0.04 -0.016 -0.0710526
          0 -0.008 -0.0789474 0.008 -0.008 -0.0789474 0 -0.008 -0.0710526 0.008 -0.008 -0.0710526
          0.016 -0.008 -0.0789474 0.016 -0.008 -0.0710526 0.024 -0.008 -0.0789474 0.024 -0.008 -0.0710526
          0.032 -0.008 -0.0789474 0.032 -0.008 -0.0710526 0.04 -0.008 -0.0789474 0.04 -0.008 -0.0710526
          0 0 -0.0789474 0.008 0 -0.0789474 0 0 -0.0710526 0.008 0 -0.0710526
          0.016 0 -0.0789474 0.016 0 -0.0710526 0.024 0 -0.0789474 0.024 0 -0.0710526
          0.032 0 -0.0789474 0.032 0 -0.0710526 0.04 0 -0.0789474 0.04 0 -0.0710526
          0 0.008 -0.0789474 0.008 0.008 -0.0789474 0 0.008 -0.0710526 0.008 0.008 -0.0710526
          0.016 0.008 -0.0789474 0.016 0.008 -0.0710526 0.024 0.008 -0.0789474 0.024 0.008 -0.0710526
          0.032 0.008 -0.0789474 0.032 0.008 -0.0710526 0.04 0.008 -0.0789474 0.04 0.008 -0.0710526
          0 0.016 -0.0789474 0.008 0.016 -0.0789474 0 0.016 -0.0710526 0.008 0.016 -0.0710526
          0.016 0.016 -0.0789474 0.016 0.016 -0.0710526 0.024 0.016 -0.0789474 0.024 0.016 -0.0710526
          0.032 0.016 -0.0789474 0.032 0.016 -0.0710526 0.04 0.016 -0.0789474 0.04 0.016 -0.0710526
          0 0.024 -0.0789474 0.008 0.024 -0.0789474 0 0.024 -0.0710526 0.008 0.024 -0.0710526
          0.016 0.024 -0.0789474 0.016 0.024 -0.0710526 0.024 0.024 -0.0789474 0.024 0.024 -0.0710526
          0.032 0.024 -0.0789474 0.032 0.024 -0.0710526 0.04 0.024 -0.0789474 0.04 0.024 -0.0710526
          0 0.032 -0.0789474 0.008 0.032 -0.0789474 0 0.032 -0.0710526 0.008 0.032 -0.0710526
          0.016 0.032 -0.0789474 0.016 0.032 -0.0710526 0.024 0.032 -0.0789474 0.024 0.032 -0.0710526
          0.032 0.032 -0.0789474 0.032 0.032 -0.0710526 0.04 0.032 -0.0789474 0.04 0.032 -0.0710526
          0 0.04 -0.0789474 0.008 0.04 -0.0789474 0 0.04 -0.0710526 0.008 0.04 -0.0710526
          0.016 0.04 -0.0789474 0.016 0.04 -0.0710526 0.024 0.04 -0.0789474 0.024 0.04 -0.0710526
          0.032 0.04 -0.0789474 0.032 0.04 -0.0710526 0.04 0.04 -0.0789474 0.04 0.04 -0.0710526
          0 -0.04 -0.0631579 0.008 -0.04 -0.0631579 0 -0.032 -0.0631579 0.008 -0.032 -0.0631579
          0.016 -0.04 -0.0631579 0.016 -0.032 -0.0631579 0.024 -0.04 -0.0631579 0.024 -0.032 -0.0631579
          0.032 -0.04 -0.0631579 0.032 -0.032 -0.0631579 0.04 -0.04 -0.0631579 0.04 -0.032 -0.0631579
          0 -0.024 -0.0631579 0.008 -0.024 -0.0631579 0.016 -0.024 -0.0631579 0.024 -0.024 -0.0631579
          0.032 -0.024 -0.0631579 0.04 -0.024 -0.0631579 0 -0.016 -0.0631579 0.008 -0.016 -0.0631579
          0.016 -0.016 -0.0631579 0.024 -0.016 -0.0631579 0.032 -0.016 -0.0631579 0.04 -0.016 -0.0631579
          0 -0.008 -0.0631579 0.008 -0.008 -0.0631579 0.016 -0.008 -0.0631579 0.024 -0.008 -0.0631579
          0.032 -0.008 -0.0631579 0.04 -0.008 -0.0631579 0 0 -0.0631579 0.008 0 -0.0631579
          0.016 0 -0.0631579 0.024 0 -0.0631579 0.032 0 -0.0631579 0.04 0 -0.0631579
          0 0.008 -0.0631579 0.008 0.008 -0.0631579 0.016 0.008 -0.0631579 0.024 0.008 -0.0631579
          0.032 0.008 -0.0631579 0.04 0.008 -0.0631579 0 0.016 -0.0631579 0.008 0.016 -0.0631579
          0.016 0.016 -0.0631579 0.024 0.016 -0.0631579 0.032 0.016 -0.0631579 0.04 0.016 -0.0631579
          0 0.024 -0.0631579 0.008 0.024 -0.0631579 0.016 0.024 -0.0631579 0.024 0.024 -0.0631579
          0.032 0.024 -0.0631579 0.04 0.024 -0.0631579 0 0.032 -0.0631579 0.008 0.032 -0.0631579
          0.016 0.032 -0.0631579 0.024 0.032 -0.0631579 0.032 0.032 -0.0631579 0.04 0.032 -0.0631579
          0 0.04 -0.0631579 0.008 0.04 -0.0631579 0.016 0.04 -0.0631579 0.024 0.04 -0.0631579
          0.032 0.04 -0.0631579 0.04 0.04 -0.0631579 0 -0.04 -0.0552632 0.008 -0.04 -0.0552632
          0 -0.032 -0.0552632 0.008 -0.032 -0.0552632 0.016 -0.04 -0.0552632 0.016 -0.032 -0.0552632
          0.024 -0.04 -0.0552632 0.024 -0.032 -0.0552632 0.032 -0.04 -0.0552632 0.032 -0.032 -0.0552632
          0.04 -0.04 -0.0552632 0.04 -0.032 -0.0552632 0 -0.024 -0.0552632 0.008 -0.024 -0.0552632
          0.016 -0.024 -0.0552632 0.024 -0.024 -0.0552632 0.032 -0.024 -0.0552632 0.04 -0.024 -0.0552632
          0 -0.016 -0.0552632 0.008 -0.016 -0.0552632 0.016 -0.016 -0.0552632 0.024 -0.016 -0.0552632
          0.032 -0.016 -0.0552632 0.04 -0.016 -0.0552632 0 -0.008 -0.0552632 0.008 -0.008 -0.0552632
          0.016 -0.008 -0.0552632 0.024 -0.008 -0.0552632 0.032 -0.008 -0.0552632 0.04 -0.008 -0.0552632
          0 0 -0.0552632 0.008 0 -0.0552632 0.016 0 -0.0552632 0.024 0 -0.0552632
          0.032 0 -0.0552632 0.04 0 -0.0552632 0 0.008 -0.0552632 0.008 0.008 -0.0552632
          0.016 0.008 -0.0552632 0.024 0.008 -0.0552632 0.032 0.008 -0.0552632 0.04 0.008 -0.0552632
          0 0.016 -0.0552632 0.008 0.016 -0.0552632 0.016 0.016 -0.0552632 0.024 0.016 -0.0552632
          0.032 0.016 -0.0552632 0.04 0.016 -0.0552632 0 0.024 -0.0552632 0.008 0.024 -0.0552632
          0.016 0.024 -0.0552632 0.024 0.024 -0.0552632 0.032 0.024 -0.0552632 0.04 0.024 -0.0552632
          0 0.032 -0.0552632 0.008 0.032 -0.0552632 0.016 0.032 -0.0552632 0.024 0.032 -0.0552632
          0.032 0.032 -0.0552632 0.04 0.032 -0.0552632 0 0.04 -0.0552632 0.008 0.04 -0.0552632
          0.016 0.04 -0.0552632 0.024 0.04 -0.0552632 0.032 0.04 -0.0552632 0.04 0.04 -0.0552632
          0 -0.04 -0.0473684 0.008 -0.04 -0.0473684 0 -0.032 -0.0473684 0.008 -0.032 -0.0473684
          0.016 -0.04 -0.0473684 0.016 -0.032 -0.0473684 0.024 -0.04 -0.0473684 0.024 -0.032 -0.0473684
          0.032 -0.04 -0.0473684 0.032 -0.032 -0.0473684 0.04 -0.04 -0.0473684 0.04 -0.032 -0.0473684
          0 -0.024 -0.0473684 0.008 -0.024 -0.0473684 0.016 -0.024 -0.0473684 0.024 -0.024 -0.0473684
          0.032 -0.024 -0.0473684 0.04 -0.024 -0.0473684 0 -0.016 -0.0473684 0.008 -0.016 -0.0473684
          0.016 -0.016 -0.0473684 0.024 -0.016 -0.0473684 0.032 -0.016 -0.0473684 0.04 -0.016 -0.0473684
          0 -0.008 -0.0473684 0.008 -0.008 -0.0473684 0.016 -0.008 -0.0473684 0.024 -0.008 -0.0473684
          0.032 -0.008 -0.0473684 0.04 -0.008 -0.0473684 0 0 -0.0473684 0.008 0 -0.0473684
          0.016 0 -0.0473684 0.024 0 -0.0473684 0.032 0 -0.0473684 0.04 0 -0.0473684
          0 0.008 -0.0473684 0.008 0.008 -0.0473684 0.016 0.008 -0.0473684 0.024 0.008 -0.0473684
          0.032 0.008 -0.0473684 0.04 0.008 -0.0473684 0 0.016 -0.0473684 0.008 0.016 -0.0473684
          0.016 0.016 -0.0473684 0.024 0.016 -0.0473684 0.032 0.016 -0.0473684 0.04 0.016 -0.0473684
          0 0.024 -0.0473684 0.008 0.024 -0.0473684 0.016 0.024 -0.0473684 0.024 0.024 -0.0473684
          0.032 0.024 -0.0473684 0.04 0.024 -0.0473684 0 0.032 -0.0473684 0.008 0.032 -0.0473684
          0.016 0.032 -0.0473684 0.024 0.032 -0.0473684 0.032 0.032 -0.0473684 0.04 0.032 -0.0473684
          0 0.04 -0.0473684 0.008 0.04 -0.0473684 0.016 0.04 -0.0473684 0.024 0.04 -0.0473684
          0.032 0.04 -0.0473684 0.04 0.04 -0.0473684 0 -0.04 -0.0394737 0.008 -0.04 -0.0394737
          0 -0.032 -0.0394737 0.008 -0.032 -0.0394737 0.016 -0.04 -0.0394737 0.016 -0.032 -0.0394737
          0.024 -0.04 -0.0394737 0.024 -0.032 -0.0394737 0.032 -0.04 -0.0394737 0.032 -0.032 -0.0394737
          0.04 -0.04 -0.0394737 0.04 -0.032 -0.0394737 0 -0.024 -0.0394737 0.008 -0.024 -0.0394737
          0.016 -0.024 -0.0394737 0.024 -0.024 -0.0394737 0.032 -0.024 -0.0394737 0.04 -0.024 -0.0394737
          0 -0.016 -0.0394737 0.008 -0.016 -0.0394737 0.016 -0.016 -0.0394737 0.024 -0.016 -0.0394737
          0.032 -0.016 -0.0394737 0.04 -0.016 -0.0394737 0 -0.008 -0.0394737 0.008 -0.008 -0.0394737
          0.016 -0.008 -0.0394737 0.024 -0.008 -0.0394737 0.032 -0.008 -0.0394737 0.04 -0.008 -0.0394737
          0 0 -0.0394737 0.008 0 -0.0394737 0.016 0 -0.0394737 0.024 0 -0.0394737
          0.032 0 -0.0394737 0.04 0 -0.0394737 0 0.008 -0.0394737 0.008 0.008 -0.0394737
          0.016 0.008 -0.0394737 0.024 0.008 -0.0394737 0.032 0.008 -0.0394737 0.04 0.008 -0.0394737
          0 0.016 -0.0394737 0.008 0.016 -0.0394737 0.016 0.016 -0.0394737 0.024 0.016 -0.0394737
          0.032 0.016 -0.0394737 0.04 0.016 -0.0394737 0 0.024 -0.0394737 0.008 0.024 -0.0394737
          0.016 0.024 -0.0394737 0.024 0.024 -0.0394737 0.032 0.024 -0.0394737 0.04 0.024 -0.0394737
          0 0.032 -0.0394737 0.008 0.032 -0.0394737 0.016 0.032 -0.0394737 0.024 0.032 -0.0394737
          0.032 0.032 -0.0394737 0.04 0.032 -0.0394737 0 0.04 -0.0394737 0.008 0.04 -0.0394737
          0.016 0.04 -0.0394737 0.024 0.04 -0.0394737 0.032 0.04 -0.0394737 0.04 0.04 -0.0394737
          0 -0.04 -0.0315789 0.008 -0.04 -0.0315789 0 -0.032 -0.0315789 0.008 -0.032 -0.0315789
          0.016 -0.04 -0.0315789 0.016 -0.032 -0.0315789 0.024 -0.04 -0.0315789 0.024 -0.032 -0.0315789
          0.032 -0.04 -0.0315789 0.032 -0.032 -0.0315789 0.04 -0.04 -0.0315789 0.04 -0.032 -0.0315789
          0 -0.024 -0.0315789 0.008 -0.024 -0.0315789 0.016 -0.024 -0.0315789 0.024 -0.024 -0.0315789
          0.032 -0.024 -0.0315789 0.04 -0.024 -0.0315789 0 -0.016 -0.0315789 0.008 -0.016 -0.0315789
          0.016 -0.016 -0.0315789 0.024 -0.016 -0.0315789 0.032 -0.016 -0.0315789 0.04 -0.016 -0.0315789
          0 -0.008 -0.0315789 0.008 -0.008 -0.0315789 0.016 -0.008 -0.0315789 0.024 -0.008 -0.0315789
          0.032 -0.008 -0.0315789 0.04 -0.008 -0.0315789 0 0 -0.0315789 0.008 0 -0.0315789
          0.016 0 -0.0315789 0.024 0 -0.0315789 0.032 0 -0.0315789 0.04 0 -0.0315789
          0 0.008 -0.0315789 0.008 0.008 -0.0315789 0.016 0.008 -0.0315789 0.024 0.008 -0.0315789
          0.032 0.008 -0.0315789 0.04 0.008 -0.0315789 0 0.016 -0.0315789 0.008 0.016 -0.0315789
          0.016 0.016 -0.0315789 0.024 0.016 -0.0315789 0.032 0.016 -0.0315789 0.04 0.016 -0.0315789
          0 0.024 -0.0315789 0.008 0.024 -0.0315789 0.016 0.024 -0.0315789 0.024 0.024 -0.0315789
          0.032 0.024 -0.0315789 0.04 0.024 -0.0315789 0 0.032 -0.0315789 0.008 0.032 -0.0315789
          0.016 0.032 -0.0315789 0.024 0.032 -0.0315789 0.032 0.032 -0.0315789 0.04 0.032 -0.0315789
          0 0.04 -0.0315789 0.008 0.04 -0.0315789 0.016 0.04 -0.0315789 0.024 0.04 -0.0315789
          0.032 0.04 -0.0315789 0.04 0.04 -0.0315789 0 -0.04 -0.0236842 0.008 -0.04 -0.0236842
          0 -0.032 -0.0236842 0.008 -0.032 -0.0236842 0.016 -0.04 -0.0236842 0.016 -0.032 -0.0236842
          0.024 -0.04 -0.0236842 0.024 -0.032 -0.0236842 0.032 -0.04 -0.0236842 0.032 -0.032 -0.0236842
          0.04 -0.04 -0.0236842 0.04 -0.032 -0.0236842 0 -0.024 -0.0236842 0.008 -0.024 -0.0236842
          0.016 -0.024 -0.0236842 0.024 -0.024 -0.0236842 0.032 -0.024 -0.0236842 0.04 -0.024 -0.0236842
          0 -0.016 -0.0236842 0.008 -0.016 -0.0236842 0.016 -0.016 -0.0236842 0.024 -0.016 -0.0236842
          0.032 -0.016 -0.0236842 0.04 -0.016 -0.0236842 0 -0.008 -0.0236842 0.008 -0.008 -0.0236842
          0.016 -0.008 -0.0236842 0.024 -0.008 -0.0236842 0.032 -0.008 -0.0236842 0.04 -0.008 -0.0236842
          0 0 -0.0236842 0.008 0 -0.0236842 0.016 0 -0.0236842 0.024 0 -0.0236842
          0.032 0 -0.0236842 0.04 0 -0.0236842 0 0.008 -0.0236842 0.008 0.008 -0.0236842
          0.016 0.008 -0.0236842 0.024 0.008 -0.0236842 0.032 0.008 -0.0236842 0.04 0.008 -0.0236842
          0 0.016 -0.0236842 0.008 0.016 -0.0236842 0.016 0.016 -0.0236842 0.024 0.016 -0.0236842
          0.032 0.016 -0.0236842 0.04 0.016 -0.0236842 0 0.024 -0.0236842 0.008 0.024 -0.0236842
          0.016 0.024 -0.0236842 0.024 0.024 -0.0236842 0.032 0.024 -0.0236842 0.04 0.024 -0.0236842
          0 0.032 -0.0236842 0.008 0.032 -0.0236842 0.016 0.032 -0.0236842 0.024 0.032 -0.0236842
          0.032 0.032 -0.0236842 0.04 0.032 -0.0236842 0 0.04 -0.0236842 0.008 0.04 -0.0236842
          0.016 0.04 -0.0236842 0.024 0.04 -0.0236842 0.032 0.04 -0.0236842 0.04 0.04 -0.0236842
          0 -0.04 -0.0157895 0.008 -0.04 -0.0157895 0 -0.032 -0.0157895 0.008 -0.032 -0.0157895
          0.016 -0.04 -0.0157895 0.016 -0.032 -0.0157895 0.024 -0.04 -0.0157895 0.024 -0.032 -0.0157895
          0.032 -0.04 -0.0157895 0.032 -0.032 -0.0157895 0.04 -0.04 -0.0157895 0.04 -0.032 -0.0157895
          0 -0.024 -0.0157895 0.008 -0.024 -0.0157895 0.016 -0.024 -0.0157895 0.024 -0.024 -0.0157895
          0.032 -0.024 -0.0157895 0.04 -0.024 -0.0157895 0 -0.016 -0.0157895 0.008 -0.016 -0.0157895
          0.016 -0.016 -0.0157895 0.024 -0.016 -0.0157895 0.032 -0.016 -0.0157895 0.04 -0.016 -0.0157895
          0 -0.008 -0.0157895 0.008 -0.008 -0.0157895 0.016 -0.008 -0.0157895 0.024 -0.008 -0.0157895
          0.032 -0.008 -0.0157895 0.04 -0.008 -0.0157895 0 0 -0.0157895 0.008 0 -0.0157895
          0.016 0 -0.0157895 0.024 0 -0.0157895 0.032 0 -0.0157895 0.04 0 -0.0157895
          0 0.008 -0.0157895 0.008 0.008 -0.0157895 0.016 0.008 -0.0157895 0.024 0.008 -0.0157895
          0.032 0.008 -0.0157895 0.04 0.008 -0.0157895 0 0.016 -0.0157895 0.008 0.016 -0.0157895
          0.016 0.016 -0.0157895 0.024 0.016 -0.0157895 0.032 0.016 -0.0157895 0.04 0.016 -0.0157895
          0 0.024 -0.0157895 0.008 0.024 -0.0157895 0.016 0.024 -0.0157895 0.024 0.024 -0.0157895
          0.032 0.024 -0.0157895 0.04 0.024 -0.0157895 0 0.032 -0.0157895 0.008 0.032 -0.0157895
          0.016 0.032 -0.0157895 0.024 0.032 -0.0157895 0.032 0.032 -0.0157895 0.04 0.032 -0.0157895
          0 0.04 -0.0157895 0.008 0.04 -0.0157895 0.016 0.04 -0.0157895 0.024 0.04 -0.0157895
          0.032 0.04 -0.0157895 0.04 0.04 -0.0157895 0 -0.04 -0.00789474 0.008 -0.04 -0.00789474
          0 -0.032 -0.00789474 0.008 -0.032 -0.00789474 0.016 -0.04 -0.00789474 0.016 -0.032 -0.00789474
          0.024 -0.04 -0.00789474 0.024 -0.032 -0.00789474 0.032 -0.04 -0.00789474 0.032 -0.032 -0.00789474
          0.04 -0.04 -0.00789474 0.04 -0.032 -0.00789474 0 -0.024 -0.00789474 0.008 -0.024 -0.00789474
          0.016 -0.024 -0.00789474 0.024 -0.024 -0.00789474 0.032 -0.024 -0.00789474 0.04 -0.024 -0.00789474
          0 -0.016 -0.00789474 0.008 -0.016 -0.00789474 0.016 -0.016 -0.00789474 0.024 -0.016 -0.00789474
          0.032 -0.016 -0.00789474 0.04 -0.016 -0.00789474 0 -0.008 -0.00789474 0.008 -0.008 -0.00789474
          0.016 -0.008 -0.00789474 0.024 -0.008 -0.00789474 0.032 -0.008 -0.00789474 0.04 -0.008 -0.00789474
          0 0 -0.00789474 0.008 0 -0.00789474 0.016 0 -0.00789474 0.024 0 -0.00789474
          0.032 0 -0.00789474 0.04 0 -0.00789474 0 0.008 -0.00789474 0.008 0.008 -0.00789474
          0.016 0.008 -0.00789474 0.024 0.008 -0.00789474 0.032 0.008 -0.00789474 0.04 0.008 -0.00789474
          0 0.016 -0.00789474 0.008 0.016 -0.00789474 0.016 0.016 -0.00789474 0.024 0.016 -0.00789474
          0.032 0.016 -0.00789474 0.04 0.016 -0.00789474 0 0.024 -0.00789474 0.008 0.024 -0.00789474
          0.016 0.024 -0.00789474 0.024 0.024 -0.00789474 0.032 0.024 -0.00789474 0.04 0.024 -0.00789474
          0 0.032 -0.00789474 0.008 0.032 -0.00789474 0.016 0.032 -0.00789474 0.024 0.032 -0.00789474
          0.032 0.032 -0.00789474 0.04 0.032 -0.00789474 0 0.04 -0.00789474 0.008 0.04 -0.00789474
          0.016 0.04 -0.00789474 0.024 0.04 -0.00789474 0.032 0.04 -0.00789474 0.04 0.04 -0.00789474
          0 -0.04 3.46945e-18 0.008 -0.04 3.46945e-18 0 -0.032 3.46945e-18 0.008 -0.032 3.46945e-18
          0.016 -0.04 3.46945e-18 0.016 -0.032 3.46945e-18 0.024 -0.04 3.46945e-18 0.024 -0.032 3.46945e-18
          0.032 -0.04 3.46945e-18 0.032 -0.032 3.46945e-18 0.04 -0.04 3.46945e-18 0.04 -0.032 3.46945e-18
          0 -0.024 3.46945e-18 0.008 -0.024 3.46945e-18 0.016 -0.024 3.46945e-18 0.024 -0.024 3.46945e-18
          0.032 -0.024 3.46945e-18 0.04 -0.024 3.46945e-18 0 -0.016 3.46945e-18 0.008 -0.016 3.46945e-18
          0.016 -0.016 3.46945e-18 0.024 -0.016 3.46945e-18 0.032 -0.016 3.46945e-18 0.04 -0.016 3.46945e-18
          0 -0.008 3.46945e-18 0.008 -0.008 3.46945e-18 0.016 -0.008 3.46945e-18 0.024 -0.008 3.46945e-18
          0.032 -0.008 3.46945e-18 0.04 -0.008 3.46945e-18 0 0 3.46945e-18 0.008 0 3.46945e-18
          0.016 0 3.46945e-18 0.024 0 3.46945e-18 0.032 0 3.46945e-18 0.04 0 3.46945e-18
          0 0.008 3.46945e-18 0.008 0.008 3.46945e-18 0.016 0.008 3.46945e-18 0.024 0.008 3.46945e-18
          0.032 0.008 3.46945e-18 0.04 0.008 3.46945e-18 0 0.016 3.46945e-18 0.008 0.016 3.46945e-18
          0.016 0.016 3.46945e-18 0.024 0.016 3.46945e-18 0.032 0.016 3.46945e-18 0.04 0.016 3.46945e-18
          0 0.024 3.46945e-18 0.008 0.024 3.46945e-18 0.016 0.024 3.46945e-18 0.024 0.024 3.46945e-18
          0.032 0.024 3.46945e-18 0.04 0.024 3.46945e-18 0 0.032 3.46945e-18 0.008 0.032 3.46945e-18
          0.016 0.032 3.46945e-18 0.024 0.032 3.46945e-18 0.032 0.032 3.46945e-18 0.04 0.032 3.46945e-18
          0 0.04 3.46945e-18 0.008 0.04 3.46945e-18 0.016 0.04 3.46945e-18 0.024 0.04 3.46945e-18