<?xml version="1.0"?>
<VTKFile type="UnstructuredGrid" version="0.1" byte_order="LittleEndian">
  <UnstructuredGrid>
    <Piece NumberOfCells="1900" NumberOfPoints="2420">
      <CellData Scalars="p (Pa)">
        <DataArray type="Float32" Name="p (Pa)" NumberOfComponents="1" format="ascii">
          34909.1 34714.5 34373 33977.3 33648.5 33492.1 33537.6 33718.3 33923.1 34053.2 34873.6 34669.1
          34307.4 33882.9 33523.4 33347.9 33395 33588.4 33806.4 33944.4 34829.3 34612.1 34224.4 33761.3
          33358.3 33152.6 33200 33408.8 33642.3 33789.7 34814.1 34591.9 34193.6 33713.4 33287.8 33060.9
          33102.8 33310.7 33544.2 33692.5 34856.6 34643.2 34262.7 33808.3 33410.8 33200.2 33228.1 33407.1
          33614.6 33749.2 34963.6 34771.5 34432.9 34037 33702.6 33535.3 33560.4 33707.7 33879.3 33991.6
          35120.9 34957.7 34674.2 34351.4 34091.5 33974.6 34007.4 34132.1 34272.5 34363.1 35296.8 35164
          34937.1 34686.4 34494.6 34420 34460.7 34569.5 34686.1 34759.7 35448.9 35341.1 35159.8 34965.1
          34823.4 34777.2 34822.2 34919.4 35019.7 35081.8 35536.9 35443.2 35287 35122.5 35006.7 34974.5
          35020.9 35111.8 35203.7 35259.9 34413.9 34153.6 33690.8 33145.8 32690.1 32486.1 32578 32854.4
          33151.1 33335.2 34361.3 34083.4 33583.5 32981.6 32461.8 32219.6 32325.5 32636.5 32963.8 33164.9
          34293.2 33992.4 33442.8 32761.1 32141.9 31829.3 31956.9 32317.8 32685.8 32910.1 34261.7 33950.5
          33377.8 32656 31976 31598.1 31733.8 32110.2 32488.6 32722.2 34304.7 34004.9 33458 32780.7
          32162.5 31832.6 31918.8 32221.8 32546.7 32758.7 34431.2 34160.6 33674.8 33091.8 32591 32356.1
          32424.6 32658.5 32914.6 33085.4 34625.6 34395.5 33989.8 33519.9 33143.5 32999.9 33077.6 33271.2
          33475 33607.3 34849.6 34664.1 34343.9 33987.4 33721.1 33639.5 33722.4 33888.2 34054.9 34158.9
          35046.9 34898.9 34648.7 34380.2 34191.6 34146.2 34227.4 34372 34513 34598.8 35162 35035.2
          34823.6 34602.1 34452.4 34423.6 34501.9 34634.4 34762 34838.8 33482.2 33075 32334.2 31433.8
          30667.2 30357 30584.1 31103.6 31620.6 31930 33390.1 32945 32118 31073.1 30128.6 29718.6
          30017.8 30651.2 31253.6 31608.2 33266.6 32771 31825.4 30564.3 29308.3 28660.6 29108.3 29935.7
          30668.4 31093.5 33196.7 32676.3 31672.3 30294.8 28812.7 27826.9 28431.7 29377 30170 30643.9
          33237.1 32733.9 31778.1 30511.9 29247.6 28526.7 28849.2 29509.1 30147.1 30589.6 33400.5 32943
          32092.1 31016.6 30051.1 29654.2 29876.7 30333.8 30793.3 31130.3 33671.5 33280.2 32568.2 31707.7
          31010.2 30844.5 31076.3 31448 31801.2 32041.6 34000.7 33689.6 33140.3 32513.4 32055.5 31988.2
          32201.5 32512.7 32796.4 32973.6 34298.6 34057.4 33644.5 33198 32898.1 32871.5 33052.9 33313.2
          33548 33688 34474.5 34272.8 33934.6 33581.3 33356 33345 33505.6 33736.4 33944.9 34067.1
          32092.4 31428.3 30177.4 28579.3 27168.3 26682.4 27254.4 28287.5 29229 29769.8 31927.7 31179.5
          29720.4 27726.6 25767 25009 25906.1 27308.8 28486.4 29145.7 31702.7 30840.7 29084 26447.1
          23336.7 21609.3 23415.2 25591.7 27185.8 28062.8 31562 30644.6 28748 25770.1 21679.5 17345.2
          20983.2 23938.7 25823 26935.6 31589 30698.8 28907.4 26277.9 23215.7 21101.7 22443.2 23979.7
          25333.3 26510.3 31798.9 30975.6 29357.5 27117 24895.2 24245.2 25001.3 25906.5 26723.4 27549.3
          32188 31473 30096.6 28273.9 26669.5 26735.5 27487.7 28246 28868.9 29370.5 32698.7 32141.3
          31115 29872.7 28952.5 29057.6 29644.5 30267.7 30769.2 31095.9 33175.3 32760.4 32031.8 31221.8
          30696 30766.1 31189.6 31682.6 32088.3 32327.6 33459 33123.9 32553.8 31953.4 31592.1 31644.4
          31981.9 32399.6 32751.6 32952.9 30247.2 29182.1 27078.1 24182.5 21453 20783.9 22190.7 24218.1
          25893 26814.5 29963 28717 26111 22087.2 17486.3 16230.3 19001.6 22157.7 24439.1 25652.8
          29571.2 28075.3 24711.9 18587.3 8633.88 3115.63 11720.3 17977.1 21540.5 23415.4 29317.9 27713.9
          24062.6 17043.9 2423.83 -35525.8 640.184 12539.4 17486 20528.9 29309.1 27746.1 24347.3 18581.6
          10059 1591.78 8129.64 10995.8 13901.8 18551.7 29555 28057.7 24852.6 19644.4 13057 12988.1
          15756.9 17177.5 18093.6 20943.9 30099.1 28756.2 25908.2 21367 15955.8 18616.9 21320.5 22865
          23824.3 25070.9 30901.2 29885.8 27881.6 25158.2 22883.7 23987.3 25668.3 26930.1 27786.2 28421.8
          31672.2 30958.5 29652 28112.9 27107.5 27544.8 28531.7 29457.1 30141.1 30548.7 32131.2 31581.2
          30623 29589.5 28996.6 29230.4 29919.9 30658.4 31235.6 31559.4 28010 26391.6 23002.8 17833.8
          12357.3 11970.3 15160.3 18864.9 21648.6 23124.3 27549.6 25568.3 21015.6 12531.6 -509.711 -180.118
          8108.64 14875.8 19034.3 21156.3 26914 24410.4 17897.8 1295.5 -51413.8 -61394.6 -13752.5 5028.85
          12829.9 16858.7 26512.7 23839.2 16942.8 -873.561 -71405 -735094 -82971 -15157 -495.869 9583.52
          26436.9 23811.6 17536.6 4744.04 -21097.1 -65882 -28056.8 -39476.1 -34008.7 636.495 26670.9 23992.4
          17476.3 3452.93 -29535.9 -12841.2 -1929.31 -2785.55 -9126.74 7800.99 27384.4 24837.4 18493.6 4102.07
          -33010.9 60.5925 10986.6 13975.7 14554 18492.1 28639.4 26812.1 22805.3 16194.3 8585.93 15086
          19938.9 22423.6 23745.5 25048.2 29867.3 28681.6 26377.5 23398.7 21291.7 22939 25136.8 26786.3
          27869.1 28540.4 30588.8 29729.1 28181.3 26444.8 25479.7 26149.5 27461.7 28684.6 29571.6 30062.1
          25523.7 23279 18333 9893.75 -1030.12 905.171 6684.98 12525.8 16700.8 18872.8 24841.5 21967.1
          14666.3 -2986.04 -53432 -23198.8 -6649.48 5961.17 12715.9 16063.6 23907.1 20056.9 7790.93 -50451.2
          -699288 -142040 -73005.2 -14799.7 1155.82 9208.34 23371.1 19337.4 7390.53 -39509.2 -467167 -768061
          -752486 -97183.5 -45670.7 -6273.87 23217.6 19167.6 8489.69 -17958.2 -90127.5 -146845 -125469 -521433
          -523573 -46400.1 23370.6 18817.7 5572.56 -39739.8 -389545 -71246.2 -32856.9 -57245.7 -200310 -17966.7
          24221.4 19426.6 3740.79 -61565 -610227 -53256.9 -4434.08 935.889 -4003.83 10563.5 26149.2 23023.6
          15093 -2208.02 -36848.4 424.483 13070.2 17525.9 19313.9 21853.6 28011.8 26188.7 22380 16847.2
          12417.4 17357.4 21599.8 24221.3 25784.6 26787.7 29072.2 27843.3 25550.4 22866.5 21443.6 22909.8
          25072.5 26873.2 28106.4 28777.8 22945.8 20173.3 14138.9 3965.26 -9747.65 -9640.17 -1903.49 5303.68
          11044.6 14056.5 22022.3 18428.6 9507.49 -11403.2 -72259.3 -50325.4 -17775.1 -2264.6 6718.46 11039.1
          20814.4 15957.7 1034.07 -65510.8 -745214 -371044 -73684.9 -25199.6 -4553.55 4178.21 20276.9 15224.3
          1211.47 -38993.7 -184858 -770265 -230232 -110093 -32099.8 -7822.59 20172.5 14722.5 -438.071 -41425.4
          -174477 -252307 -204685 -763317 -104685 -21653.1 20332.2 13556.4 -9492.87 -105283 -772160 -147979
          -62431.9 -82594.9 -34237.5 -5476.35 21290.8 12787.9 -33543.4 -545718 -761771 -83028.5 -14935.7 -4027.85
          4396.89 11513.7 24066.1 19379.8 5026.93 -40577.9 -62775.1 -8438.41 8741.56 15141.6 18755.9 21093.5
          26595.6 24178.5 18775.6 10157.6 6510.19 13800 19361.7 22747.5 24832.7 25969.8 27972.8 26453.1
          23546.5 20096 18715.4 20798.3 23540 25756 27260 28045.8 20289.3 16947.5 10120.4 285.962
          -11331.4 -18880 -13065.3 -6876.89 2746.15 7639.78 18970.8 14449.8 4360.92 -11990 -39262.9 -82604.2
          -34846.4 -14343.3 -1257.9 4849.98 17375.4 10999.1 -5711.18 -39081.2 -142145 -781476 -138653 -42811
          -12057.3 -1077.08 17297.3 11082.9 -5193.09 -44574.1 -182559 -777713 -783506 -140323 -32541 -8648.8
          17881.8 11409.7 -8181.49 -86797.1 -780974 -795842 -792942 -742881 -72273.6 -12667.8 18703.8 11145.5
          -15469.3 -130313 -822360 -229070 -108758 -71981.6 -14758.5 1395.84 20201.4 10960.5 -42042.5 -663251
          -753935 -87379.3 -18546.7 -2347.22 8605.22 13768.9 23424.8 18552.8 3398.28 -46414.4 -57941.2 -8281.95
          8259.65 15298.5 19459.2 21580.7 26194 23742.8 18273.6 9618.94 7074.79 13795.3 19132.1 22606.4
          24820.2 25950.6 27667.4 26142.6 23245.2 19868.5 18692.8 20664.7 23326.1 25557.6 27104.6 27902.5
          17685.1 13281.2 4475.86 -5665.56 -14913.2 -24056.6 -32333.7 -51008.3 -14418.4 -2626.72 15513.8 8333.65
          -8818.8 -26121.3 -37763.9 -53967.6 -55197.2 -41888.7 -15907.8 -4905.01 12848.9 -311.35 -51648.3 -97807.4
          -105567 -184351 -181771 -96376.5 -27634.7 -9819.13 14374.7 5657.4 -17700.5 -57724 -164481 -769699
          -793243 -127805 -31490.8 -10598.9 16732.4 10165.4 -7436.39 -52198.2 -213403 -782432 -224076 -96371.8
          -23662.8 -5104.43 18949 12882.7 -5676.43 -80816.9 -759694 -644652 -76786.7 -22705.3 -1701.34 6378.71
          21401.7 15970.5 -838.108 -56355.1 -100256 -57382.4 -9751.08 4995.91 12588.3 16085.9 24415.8 21132.8
          13253 -804.198 -7302.74 1950.91 11757.7 17444.6 20891 22592.6 26870.1 25019.8 21315.6 16593.1
          14705.7 17232.5 20745.8 23547.4 25453.8 26430.1 28178.6 26944.8 24708.2 22275.6 21282.1 22355.7
          24299 26139.7 27488.8 28196.1 16147.5 10485.7 -1889.21 -13946.6 -22179.4 -36098.2 -84690.9 -478684
          -63209.5 -19973.1 12898.3 452.003 -47303.8 -79073.8 -66112.9 -69152.8 -136201 -153642 -50146.5 -22559.6
          7967.3 -34017.4 -581136 -759047 -420235 -216678 -808342 -724766 -85408.2 -30690.6 12383.9 -1257.63
          -54889.5 -118915 -245488 -771034 -781974 -142222 -43865.2 -19247 16756.5 10210.2 -6490.32 -38642.5
          -140780 -769044 -138579 -43842.3 -15726.9 -4517.06 20210.2 15772.1 4944.13 -18503.5 -82511.6 -99891.4
          -30486.4 -7362.31 3417.1 8435.68 23223.9 19992.6 12553.5 -586.741 -13254.2 -10773.4 2344.44 10426.5
          15248.2 17645 25975.3 23925.8 19747 14077.7 10549.8 12122 16327.6 19883.4 22326.5 23590
          28043.3 26781.7 24451.4 21779.2 20373.8 21103 22996.6 24898.3 26327.8 27089.1 29130.8 28231.1
          26661.7 25009.9 24179.4 24595 25785 27100 28141 28706.1 17299 12828.4 3785.47 -7453.37
          -21676.7 -45327.5 -140866 -782929 -120961 -40292.3 15117.5 7799.87 -9835.99 -29932 -63006.1 -81496.2
          -210223 -839172 -130525 -54519.4 12553.6 -931.083 -54009 -115213 -460222 -203750 -282611 -226284
          -156437 -102375 14626.3 5669.63 -20695.2 -100650 -772615 -770041 -222174 -100416 -102191 -44700.9
          18270.5 12915.2 -126.34 -27498.3 -103699 -146228 -65234.5 -33566.9 -23846.6 -10590.5 21828.9 18438.9
          10931 -2018.92 -21322.3 -27143.5 -12566.6 -2084.83 3691.72 7947.47 24921.5 22724.1 18226.8 11746
          5646.8 4909.63 9223.07 13514.6 16530 18337.3 27446.3 26068.4 23462.7 20238.4 17891.6 17870.9
          19672.5 21766.2 23413.5 24348.4 29228.2 28348.8 26785.9 25041 23928 23989 24944.2 26149.6
          27157.1 27725.9 30144 29492.8 28376.6 27196.7 26485.5 26545.5 27207.8 28080 28832 29258.7
          19467.8 16073.7 9186.1 -933.395 -15809.2 -45014.4 -136407 -191160 -76950.8 -44989.4 18103.4 13431.7
          3242.44 -12209.1 -37026.1 -113161 -778467 -839326 -180072 -110248 16541.3 9569.81 -8755.68 -41649.3
          -98579.2 -220762 -810684 -330161 -890904 -760576 17121 9787.19 -13041.9 -86836.6 -217046 -776682
          -845269 -207315 -763758 -131624 19903.2 14885.3 1664.14 -29023.7 -91399.4 -115143 -96200.2 -50662.3
          -70929.3 -24001.2 23252 20230.1 13410.9 1472.55 -14238 -16400.4 -10609.1 -2850.53 -73.4342 6194.77
          26254.4 24471 20875.7 15773.7 10867.2 10075 12086.9 14852.1 16936.3 18656 28606.8 27544.8
          25567.8 23126.8 21172.6 20795 21677.8 23019.8 24198.9 24956.5 30203.3 29533.9 28352.4 27014
          26044.8 25858.8 26348.5 27133.8 27859.4 28296.6 31006.5 30508.7 29655.3 28730.5 28092.9 27979.6
          28333.4 28910.5 29453.6 29776.4 21524.3 18702 12790.7 3430.4 -9820.38 -30443.4 -66217.8 -83985.7
          -47579.2 -29794.1 20508.8 16748.5 8110.1 -7539.55 -28491.2 -64907.4 -181107 -204904 -87328.8 -51511
          19161.4 13275.8 -4672.8 -63130.3 -120035 -201430 -791496 -330935 -200765 -116268 18932.7 10208.8
          -40003.5 -651937 -791636 -836874 -769920 -775328 -742128 -97302.7 21278.8 15741.6 -3946.89 -109317
          -623827 -133388 -104862 -83933.2 -67173.1 -19168 24415.9 21413.2 13855 -3722.28 -40287 -17039.7
          -9822.11 -3542.33 1481.04 7932.43 27262.9 25637.6 22241 16977.3 11134.2 11912.1 13718.9 16012.7
          18054.7 19703.7 29459.9 28545.9 26822.9 24618.7 22720.7 22376.6 22981.4 24022.5 25023.8 25691.6
          30924.1 30365.6 29372.4 28217 27314.5 27049.2 27336.7 27914.2 28492.7 28855.4 31651.8 31241.9
          30533.5 29744.7 29152.8 28963.8 29160.4 29573.1 29993.3 30252.3 23218.1 20798.3 15686.9 7417.31
          -4637.64 -21950.8 -50783.1 -99476 -35532.6 -16477.5 22462.3 19419.8 12566.4 324.868 -19763.1 -51492.9
          -157886 -759332 -91251.2 -27684.7 21468.7 17181.2 5894.31 -21007.9 -92444.6 -181190 -929343 -782826
          -110039 -36518.3 21302.3 15811.9 -2698.76 -82970.8 -756046 -766984 -805085 -165278 -83105.3 -26202.5
          23003 18932.6 7781.51 -20803.3 -96138.5 -104341 -85308.4 -32770 -15191.8 -2334.78 25575.8 23106.5
          17452.9 7268.23 -7149.75 -9068.53 -4453.76 3792.66 9134.4 12817.1 28079.8 26672.4 23823.1 19715.7
          15541.3 14534.4 15799 18163.6 20222.1 21560.8 30073.7 29269.4 27764.8 25863 24207.9 23657.3
          24095.3 25058 26007.2 26607 31417.1 30925.7 30050.2 29022.9 28191.2 27876.6 28075.5 28573
          29092.6 29418.4 32086.4 31727.3 31103.2 30397.2 29843.7 29626.1 29754.5 30094.5 30458.2 30686
          24441.6 22285.3 17724.2 10314 -425.946 -14544.5 -29576.2 -30358.5 -11907.4 -2848.47 23862.2 21286.8
          15584.2 5547.55 -11064.4 -39752.9 -101687 -89393.2 -24130.6 -6854.15 23138.2 19845.6 11897.9 -4577.37
          -41072.2 -150771 -767948 -128407 -29624.4 -8606.79 23077.6 19299.4 9303.89 -16600.2 -114437 -766231
          -299988 -57072.1 -17347.8 -2922.46 24345.5 21261.1 13836.7 -1088.39 -30006.6 -83434.5 -43376.7 -11764.3
          1462.02 7753 26445.5 24383.2 19928.6 12696.9 3380.18 -3377.56 1957.14 9286.36 14249.1 16922.9
          28638.2 27387.7 24913.8 21478.7 18025.9 16425.5 17689.4 20085.5 22153.4 23347.3 30457.4 29720.2
          28351.2 26636.9 25132.1 24517.1 24953.2 25941 26904.7 27484.2 31708 31253.1 30442.6 29490.4
          28710.7 28395.8 28590.5 29087.1 29604.3 29923.1 32336.5 32003.9 31424.5 30765.5 30242.6 30029.5
          30149.7 30478.3 30831.5 31052.1 25168 23122.8 18771.3 11647.8 1452.29 -10064 -13633.2 -7631.13
          1401.97 6368.21 24656.8 22252.9 16893.7 7259.02 -9183.85 -34844.7 -38775.4 -20308.1 -2856.25 4581.75
          24020.3 21041.9 13879.8 -1249.15 -36950.6 -143694 -126160 -37103.2 -6311.63 3688.82 23945.5 20623.7
          12148.1 -8775.54 -87492.2 -762758 -141148 -31568.7 -2589.53 6601.14 24975.5 22119.1 15276 1402.41
          -26438.3 -79533 -31875.9 -4633.05 7934.1 13053.6 26835.9 24843.8 20515 13382.4 4007.98 -2385.73
          4163.52 11913.5 17065.2 19564 28876.9 27643.5 25186.8 21739.9 18269 16872.5 18525.6 21220.4
          23444.3 24647.8 30615.1 29884.9 28522.2 26808 25319 24800.6 25386.3 26506.4 27550 28153.4
          31825 31376.8 30576.2 29635.1 28875.9 28607.5 28864.1 29416.8 29970.5 30304 32436.1 32110.9
          31543.7 30899.4 30395.5 30210 30362.2 30719 31090.9 31319.9 25481.8 23434.4 19033.9 11706.1
          976.443 -11105.8 -8112.72 659.293 7865.11 11549.1 24953.6 22506.1 16905.9 6187.59 -15520.9 -71219.5
          -38880.2 -8528.37 4905.74 10298.1 24257.8 21128.8 13180.2 -6358.19 -80740.9 -761437 -292243 -34335.5
          587.856 9234.46 24062.7 20426.5 10388.3 -18249.7 -136306 -766183 -746164 -59871.2 198.273 10683.7
          24965.6 21708.8 13035.2 -9120.4 -76999.3 -98520.6 -65125.1 -6923.21 10116.5 15641 26791.9 24548.5
          19321.7 9487.14 -5822.69 -6632.07 1686.92 12332.8 18365.1 21019.5 28843.4 27492.9 24695.9 20510.7
          16119.3 15837.2 18313.4 21633.4 24137.3 25421.6 30597 29820.7 28344.2 26439.7 24807 24554.7
          25424.9 26756.4 27915 28561.9 31815.9 31351.9 30516.7 29529.3 28754.6 28568.7 28930.2 29568.3
          30174.9 30531.3 32430.4 32099.8 31521.8 30866.9 30368.7 30222.1 30425.8 30827.7 31229.8 31472.9
          25539.4 23464.4 19002.7 11690.6 1866.21 -5774.39 -2709.83 4686.79 10762.5 13894.1 24970.5 22433
          16565.6 5469.39 -13651.2 -30389.6 -16986.8 -1112.7 8558.69 12875 24173.2 20755.6 11611.8 -12164
          -88346.5 -146960 -59348.3 -12344.2 5586.09 11952.4 23824.5 19482.2 4975.73 -64520.2 -761696 -771714
          -121849 -19240.8 5671.95 13034.7 24664.1 20642.7 7260.29 -57092 -756143 -122233 -31025.6 -349.599
          12266.1 17016.4 26563.9 23933.1 17069.9 53.0076 -49272.3 -13306.1 3472.44 13483.1 19173 21726.7
          28697.2 27191.2 23897.4 18371.2 11301.5 14201.1 18238.1 21884.4 24464.6 25768.2 30502 29669.6
          28047.1 25864.2 23933.5 24117.1 25339.6 26829 28054.2 28725.2 31746.3 31262.8 30384.3 29333.7
          28520.5 28425.1 28887 29590.8 30233.3 30605.1 32370.7 32032.1 31438.7 30766.1 30264.9 30150.8
          30396.9 30832.9 31256.7 31509.9
        </DataArray>
        <DataArray type="Float32" Name="saturation" NumberOfComponents="1" format="ascii">
          0.299651 0.299449 0.299097 0.298692 0.298358 0.2982 0.298246 0.298429 0.298636 0.298769 0.299614 0.299402
          0.299029 0.298596 0.298232 0.298055 0.298103 0.298297 0.298518 0.298658 0.299568 0.299343 0.298944 0.298472
          0.298066 0.29786 0.297907 0.298117 0.298352 0.298501 0.299553 0.299322 0.298912 0.298424 0.297995 0.297769
          0.29781 0.298018 0.298253 0.298403 0.299597 0.299375 0.298983 0.29852 0.298119 0.297908 0.297935 0.298115
          0.298324 0.29846 0.299708 0.299508 0.299158 0.298752 0.298413 0.298244 0.298269 0.298418 0.298592 0.298706
          0.299873 0.299702 0.299407 0.299074 0.298808 0.298689 0.298722 0.29885 0.298993 0.299086 0.300057 0.299918
          0.299681 0.29942 0.299222 0.299145 0.299187 0.299299 0.29942 0.299496 0.300217 0.300104 0.299913 0.29971
          0.299562 0.299514 0.299561 0.299662 0.299767 0.299832 0.30031 0.300211 0.300047 0.299874 0.299753 0.29972
          0.299768 0.299863 0.299959 0.300018 0.299139 0.298872 0.298401 0.297853 0.297401 0.2972 0.29729 0.297563
          0.297859 0.298043 0.299085 0.2988 0.298292 0.29769 0.297176 0.296938 0.297042 0.297348 0.297672 0.297872
          0.299015 0.298707 0.298151 0.297471 0.296863 0.296559 0.296683 0.297035 0.297396 0.297619 0.298982 0.298664
          0.298085 0.297367 0.296701 0.296336 0.296467 0.296832 0.297202 0.297432 0.299026 0.29872 0.298166 0.29749
          0.296883 0.296562 0.296646 0.296941 0.297259 0.297468 0.299156 0.298879 0.298385 0.297799 0.297303 0.297072
          0.297139 0.297369 0.297623 0.297793 0.299357 0.29912 0.298704 0.298228 0.297851 0.297708 0.297785 0.297979
          0.298183 0.298316 0.299589 0.299397 0.299067 0.298702 0.298431 0.298349 0.298433 0.298601 0.298771 0.298877
          0.299795 0.299641 0.299381 0.299104 0.29891 0.298864 0.298947 0.299095 0.299241 0.299329 0.299916 0.299783
          0.299562 0.299333 0.299178 0.299149 0.299229 0.299366 0.299498 0.299578 0.29819 0.297783 0.297051 0.296178
          0.295449 0.295158 0.295371 0.295862 0.296357 0.296657 0.298098 0.297653 0.296839 0.295833 0.294945 0.294565
          0.294842 0.295434 0.296006 0.296346 0.297974 0.297481 0.296555 0.295352 0.294188 0.293601 0.294006 0.294766
          0.29545 0.295853 0.297904 0.297387 0.296407 0.2951 0.293738 0.292857 0.293395 0.294251 0.294983 0.295427
          0.297944 0.297444 0.296509 0.295303 0.294133 0.29348 0.293771 0.294372 0.294962 0.295376 0.298108 0.297651
          0.296814 0.29578 0.294873 0.294506 0.294711 0.295136 0.295568 0.295888 0.298381 0.297988 0.29728 0.296441
          0.295774 0.295617 0.295837 0.296192 0.296532 0.296765 0.298715 0.2984 0.297848 0.297227 0.296779 0.296713
          0.296921 0.297226 0.297506 0.297682 0.29902 0.298773 0.298354 0.297905 0.297607 0.29758 0.29776 0.298021
          0.298257 0.298398 0.299201 0.298994 0.298648 0.29829 0.298064 0.298053 0.298214 0.298447 0.298659 0.298783
          0.296814 0.296173 0.29499 0.293528 0.292279 0.291858 0.292354 0.293266 0.294116 0.294612 0.296654 0.295935
          0.294567 0.292768 0.291076 0.290441 0.291194 0.292402 0.293444 0.29404 0.296437 0.295613 0.293984 0.291656
          0.289074 0.287711 0.289137 0.290928 0.292294 0.293066 0.296301 0.295428 0.29368 0.291079 0.287766 0.284543
          0.287229 0.289561 0.291124 0.292077 0.296327 0.295479 0.293824 0.291511 0.288977 0.28732 0.288363 0.289594
          0.290711 0.29171 0.29653 0.295741 0.294233 0.292234 0.290346 0.289811 0.290434 0.291194 0.291893 0.292612
          0.296908 0.296216 0.294915 0.293254 0.291847 0.291904 0.292558 0.293229 0.293789 0.294245 0.297409 0.296862
          0.295873 0.294707 0.293865 0.29396 0.294497 0.295074 0.295545 0.295855 0.297883 0.29747 0.296755 0.295975
          0.295476 0.295542 0.295944 0.296417 0.29681 0.297044 0.298167 0.297831 0.297266 0.296679 0.29633 0.29638
          0.296707 0.297115 0.297461 0.297661 0.295055 0.294073 0.292201 0.289759 0.28759 0.287077 0.288165 0.289788
          0.291183 0.291972 0.294791 0.293652 0.291368 0.288083 0.284643 0.283757 0.285742 0.288139 0.28997 0.29098
          0.294429 0.293077 0.290194 0.285438 0.278814 0.275616 0.28074 0.284996 0.287658 0.289137 0.294197 0.292757
          0.289661 0.284329 0.275235 0.25931 0.274274 0.28127 0.284643 0.286883 0.294189 0.292786 0.289894 0.285434
          0.27969 0.274783 0.278509 0.280279 0.282168 0.285412 0.294414 0.293062 0.290311 0.286218 0.281608 0.281563
          0.283428 0.284423 0.28508 0.287199 0.294917 0.293687 0.291196 0.287524 0.283566 0.28546 0.287488 0.288697
          0.289468 0.290492 0.29567 0.294719 0.292905 0.290565 0.288712 0.2896 0.290993 0.292072 0.292821 0.293386
          0.296407 0.295725 0.294504 0.293111 0.292226 0.292608 0.293485 0.294325 0.294956 0.295338 0.296852 0.29632
          0.295408 0.294446 0.293905 0.294117 0.294751 0.295441 0.295988 0.296299 0.293019 0.291608 0.288807 0.284893
          0.281152 0.280901 0.283018 0.285642 0.287742 0.288904 0.292613 0.290909 0.287254 0.281265 0.273668 0.273841
          0.278496 0.282824 0.285766 0.287362 0.292058 0.289946 0.284939 0.274624 0.254602 0.252029 0.267412 0.276691
          0.28146 0.284198 0.291712 0.28948 0.284257 0.273479 0.249692 0.210668 0.247249 0.266816 0.273676 0.279396
          0.291647 0.289457 0.284679 0.276529 0.26442 0.250954 0.26184 0.25806 0.259806 0.274272 0.291848 0.289604
          0.284636 0.275803 0.261321 0.267804 0.272936 0.272502 0.269459 0.278312 0.292468 0.290298 0.28537 0.276166
          0.260136 0.273967 0.280273 0.282217 0.282606 0.285369 0.293582 0.29197 0.28865 0.283732 0.278785 0.282967
          0.286438 0.288348 0.289404 0.290473 0.294702 0.29362 0.291596 0.289124 0.287466 0.288756 0.290547 0.291948
          0.292894 0.293493 0.295375 0.294575 0.293172 0.291654 0.290834 0.291401 0.292535 0.293622 0.29443 0.294883
          0.290871 0.289028 0.285253 0.279588 0.273398 0.274415 0.27765 0.281261 0.284086 0.285647 0.290302 0.28799
          0.282682 0.272401 0.25406 0.263616 0.270613 0.277228 0.281385 0.283641 0.289535 0.286527 0.278306 0.254865
          0.211324 0.237799 0.249339 0.266966 0.274549 0.279165 0.289102 0.28599 0.278067 0.258049 0.2171 0.210102
          0.210365 0.244566 0.256209 0.270792 0.288979 0.285864 0.278727 0.265662 0.245858 0.237192 0.240047 0.215444
          0.215383 0.255999 0.289101 0.285607 0.277003 0.257978 0.219966 0.249728 0.260188 0.253067 0.231519 0.265658
          0.289791 0.286056 0.275963 0.251988 0.21318 0.254107 0.271683 0.274431 0.271895 0.280006 0.291401 0.288823
          0.282972 0.272794 0.258885 0.274159 0.281617 0.284672 0.285972 0.287901 0.293021 0.291434 0.288313 0.28419
          0.281191 0.284551 0.287704 0.289791 0.291091 0.291949 0.293973 0.292872 0.290894 0.288698 0.287583 0.288733
          0.290494 0.292023 0.293105 0.293707 0.288761 0.286614 0.282327 0.276089 0.269176 0.269225 0.272949 0.276848
          0.28031 0.282272 0.288033 0.285323 0.279349 0.268434 0.249503 0.254899 0.265736 0.272765 0.27767 0.280306
          0.2871 0.283567 0.274484 0.251041 0.21049 0.22076 0.24919 0.262871 0.271624 0.276209 0.286692 0.283062
          0.274579 0.258209 0.232983 0.210066 0.229001 0.242383 0.260442 0.270062 0.286613 0.28272 0.273706 0.257463
          0.234039 0.227366 0.231126 0.210182 0.24327 0.264205 0.286734 0.281938 0.269292 0.24317 0.210034 0.237052
          0.251777 0.247325 0.25973 0.271175 0.287465 0.281432 0.259959 0.214775 0.210208 0.247238 0.266909 0.271883
          0.276332 0.280608 0.289664 0.286021 0.27669 0.257721 0.251693 0.269776 0.278879 0.283005 0.285562 0.287313
          0.291783 0.289756 0.285576 0.279752 0.277548 0.2821 0.286008 0.288604 0.290294 0.291248 0.292986 0.291661
          0.289243 0.286556 0.285532 0.287088 0.289238 0.291067 0.292359 0.293051 0.286702 0.28426 0.279729 0.274086
          0.268466 0.265292 0.267707 0.270506 0.275412 0.278215 0.285719 0.282536 0.276312 0.268176 0.258126 0.247323
          0.259531 0.26716 0.27328 0.276589 0.284564 0.280281 0.271062 0.258182 0.237785 0.209882 0.238238 0.257047
          0.268146 0.273374 0.284509 0.280334 0.271312 0.256527 0.233211 0.209943 0.209849 0.23802 0.260294 0.269679
          0.284927 0.280542 0.269895 0.246495 0.20989 0.209652 0.209698 0.210531 0.2495 0.26788 0.285524 0.280374
          0.266685 0.239363 0.209242 0.229092 0.242598 0.249564 0.266984 0.274678 0.286635 0.280256 0.257277 0.212033
          0.21034 0.246382 0.265425 0.272724 0.278797 0.282079 0.289145 0.285413 0.275773 0.255995 0.25289 0.269848
          0.278587 0.283113 0.28608 0.287689 0.291439 0.289402 0.28521 0.279417 0.27788 0.282097 0.285838 0.288492
          0.290284 0.291232 0.292716 0.291395 0.289001 0.286385 0.285515 0.286986 0.289066 0.2909 0.292224 0.292924
          0.284786 0.281756 0.276377 0.271084 0.266918 0.263295 0.260363 0.254712 0.267128 0.272582 0.283261 0.278632
          0.2696 0.262535 0.258595 0.253919 0.253596 0.257324 0.266502 0.271452 0.281472 0.273772 0.254539 0.244455
          0.243123 0.233033 0.23329 0.24471 0.26199 0.269144 0.282485 0.277052 0.265766 0.252945 0.235119 0.210075
          0.209693 0.239714 0.260648 0.268793 0.284109 0.279757 0.270242 0.25439 0.23037 0.209867 0.229489 0.24471
          0.263442 0.271355 0.285703 0.281494 0.271079 0.247685 0.210243 0.21242 0.248524 0.263803 0.273053 0.277471
          0.287551 0.283576 0.273498 0.253296 0.244026 0.253032 0.269175 0.276672 0.281302 0.283656 0.28995 0.287344
          0.281738 0.273515 0.270305 0.274978 0.280764 0.284614 0.287159 0.288481 0.29202 0.29045 0.287484 0.284011
          0.282709 0.284463 0.287048 0.289244 0.290813 0.291641 0.293169 0.292085 0.290191 0.288231 0.287458 0.288294
          0.289855 0.291393 0.292559 0.293185 0.283699 0.279957 0.272956 0.267328 0.264003 0.259125 0.246907 0.216728
          0.251589 0.264859 0.281504 0.274174 0.255742 0.248044 0.2509 0.250199 0.238562 0.236366 0.254948 0.263858
          0.278412 0.259803 0.21387 0.210254 0.218752 0.230095 0.209457 0.210852 0.246766 0.260922 0.281169 0.273281
          0.253676 0.24101 0.227853 0.210053 0.209874 0.237775 0.256735 0.265146 0.284126 0.279785 0.270689 0.258319
          0.237961 0.210086 0.238247 0.256742 0.266578 0.271642 0.286642 0.283439 0.276643 0.265442 0.247342 0.244089
          0.260992 0.270277 0.275783 0.278694 0.288984 0.286478 0.281279 0.273628 0.267626 0.268715 0.275192 0.27992
          0.283078 0.284757 0.291253 0.28955 0.286294 0.282286 0.279997 0.280999 0.283825 0.286396 0.288271 0.289278
          0.293049 0.291944 0.28998 0.287843 0.286765 0.287321 0.288802 0.290349 0.291553 0.29221 0.294027 0.293216
          0.29184 0.290442 0.289757 0.290098 0.291092 0.29222 0.293136 0.293642 0.28451 0.281459 0.275988 0.270234
          0.264196 0.256308 0.23795 0.209859 0.240705 0.257808 0.282989 0.278311 0.269136 0.261183 0.251638 0.247547
          0.230642 0.208992 0.239333 0.253773 0.281279 0.273449 0.253908 0.241575 0.21733 0.231209 0.225371 0.229312
          0.236036 0.243661 0.282655 0.277059 0.264576 0.243957 0.210027 0.21007 0.229642 0.243998 0.243692 0.25649
          0.285208 0.281515 0.273869 0.262039 0.243436 0.237269 0.251106 0.259952 0.263373 0.268796 0.287882 0.28533
          0.280238 0.27289 0.264333 0.262166 0.267924 0.272857 0.275936 0.2784 0.290368 0.288585 0.285176 0.280757
          0.277046 0.276623 0.279174 0.281911 0.283966 0.285256 0.292522 0.291332 0.289175 0.286663 0.284934 0.284919
          0.286239 0.287833 0.289136 0.289895 0.294115 0.293321 0.291947 0.290467 0.289552 0.289602 0.290387 0.291401
          0.292269 0.292768 0.294959 0.294357 0.293346 0.292304 0.291689 0.29174 0.292313 0.293081 0.293756 0.294143
          0.286087 0.283648 0.279151 0.273448 0.266543 0.256399 0.238534 0.232371 0.248489 0.256406 0.285087 0.281856
          0.275686 0.26808 0.258828 0.241895 0.209931 0.20899 0.233462 0.242358 0.283974 0.279387 0.269629 0.257396
          0.244319 0.229757 0.20942 0.222702 0.208266 0.210228 0.284383 0.279522 0.267717 0.246487 0.230064 0.20996
          0.208904 0.230894 0.210174 0.239182 0.286411 0.282831 0.274822 0.261499 0.245619 0.241586 0.244741 0.254807
          0.249798 0.263315 0.289006 0.286657 0.281842 0.274719 0.267204 0.266298 0.268788 0.272469 0.273897 0.277363
          0.291491 0.289996 0.287147 0.28344 0.280197 0.2797 0.280976 0.282808 0.284253 0.285489 0.293552 0.292608
          0.290908 0.288906 0.287374 0.287085 0.287764 0.28882 0.289773 0.290397 0.295014 0.294395 0.293324 0.292145
          0.291312 0.291154 0.291571 0.292249 0.292886 0.293274 0.29577 0.2953 0.294507 0.293664 0.293093 0.292992
          0.293307 0.293827 0.294321 0.294618 0.287645 0.285522 0.281434 0.27579 0.269143 0.261007 0.250875 0.247047