<?xml version="1.0"?>
<VTKFile type="UnstructuredGrid" version="0.1" byte_order="LittleEndian">
  <UnstructuredGrid>
    <Piece NumberOfCells="1600" NumberOfPoints="2106">
      <CellData Scalars="p (Pa)">
        <DataArray type="Float32" Name="p (Pa)" NumberOfComponents="1" format="ascii">
          37165.5 37165.8 37167.9 37172 37176.9 37181.1 37183.8 37185 37147.8 37147.8 37151.9 37160.1
          37169.3 37176.9 37181.7 37183.9 37105.8 37103.7 37114.2 37133 37152.6 37167.8 37177.3 37181.5
          37027.9 37016.6 37045 37087.7 37126.4 37154.3 37170.8 37178.1 36909.8 36869.8 36941.8 37029.2
          37096.1 37139.7 37164.1 37174.6 36805.9 36718.6 36851.9 36986.3 37076.4 37130.8 37160.1 37172.6
          36882.2 36841 36914.9 37008.9 37083 37132.4 37160.5 37172.6 36956.2 36941.5 36978.4 37038.3
          37095 37137 37162.2 37173.4 37043.3 37044 37049 37058.3 37068.9 37077.5 37082.9 37085.4
          37003 37002.2 37012.9 37032.3 37052.7 37068.8 37078.7 37083.2 36900.4 36889.7 36920.8 36970.2
          37016.4 37049.9 37069.7 37078.4 36683.9 36626.9 36727.6 36856.1 36956.1 37020.7 37056.4 37071.6
          36291.9 36069.6 36381.6 36687.2 36879.6 36987.3 37042.1 37064.5 35866.1 35293.7 36007.1 36542.5
          36824.9 36965.8 37033.4 37060.3 36230.2 36001.4 36314.3 36641.3 36852 36972.4 37034.8 37060.5
          36517.8 36445.4 36570.1 36746.1 36889.5 36985.2 37039.1 37062.3 36881.3 36883.2 36896.8 36920.4
          36945.8 36965.8 36978.2 36983.7 36779.3 36774.8 36805.1 36856.8 36907.8 36946 36968.7 36978.8
          36502.1 36455.2 36552.9 36696.6 36819.1 36901.9 36948.4 36968.3 35849 35584.3 35954.4 36372.8
          36661.9 36830.6 36917.5 36952.9 34472.3 33292.1 34698.4 35827.2 36441.7 36743.7 36883 36936.7
          32605.3 28636.3 32991.9 35278.6 36265.4 36684.1 36861.4 36927 34311.1 33091.1 34456.4 35696.3
          36374.1 36709.6 36866.8 36928 35418.1 35082.9 35518.4 36091.8 36502.6 36749.1 36878.9 36932.6
          36648 36654.3 36687.9 36743 36799.1 36841.8 36867.6 36879 36416.5 36403.9 36477.7 36601.3
          36717.6 36800.5 36848.4 36869 35766.1 35618.2 35863.5 36226.7 36519.9 36706.3 36806.4 36847.9
          34128.6 33209 34264 35404.6 36145.6 36547.1 36740.7 36816.4 30232.7 25013.7 30429.9 33861.9
          35570.1 36338.6 36664.2 36782.5 23307.2 -6913.44 23581.2 32032.5 35050.2 36183.6 36614.1 36761.7
          29805.8 24541.2 29241.6 33443.8 35406.9 36265.9 36631.2 36765.2 33121.2 31929.6 33081 34725.5
          35792.6 36375.6 36662 36775.8 36295.2 36319 36394.1 36509.1 36620.4 36701.9 36749.7 36770.5
          35837.8 35830.6 35977.1 36232.8 36466.2 36625.9 36715.1 36752.9 34589.9 34314.5 34722.6 35475.4
          36080.4 36448.9 36638.6 36715.2 31557.4 29688.4 31294.5 33711 35307.6 36136.6 36515.7 36658.4
          24310.2 13777.8 22375.1 30107.7 34017.8 35699 36366.1 36595.7 10279.5 -59442.3 2916.54 25108.4
          32698.5 35342.4 36262.5 36556.4 23084.7 11173.2 14300.5 28751.3 33651.9 35559.8 36306.6 36565.6
          29513.9 26760.1 28248.5 32241.2 34614.4 35818.1 36374.7 36587.2 35731.2 35820.8 35985.7 36206.6
          36405.9 36545.1 36624.4 36658.3 34875.8 34975.9 35256.7 35735.1 36150.4 36422.3 36569.6 36630.8
          32720.6 32533 33032.3 34413.4 35499.4 36133 36447.6 36571.8 28283.6 25856.9 26614.5 31184.2
          34142.9 35606.9 36248.1 36482.2 19112.5 5275.4 6447.72 23856.8 31713 34830.2 35996.4 36381.4
          2132.65 -76267.1 -82622.7 10242.6 28815.2 34137.1 35813 36317.1 14911.3 -4044.41 1634.78 22348.1
          31164.9 34609.4 35904 36335.9 24603.4 19562.2 22073.7 28811.8 33009 35097.2 36028.3 36373.7
          34729.5 35037.4 35416.3 35824.7 36154.8 36372.4 36492.2 36542.7 32923.9 33546.5 34223.4 35101.1
          35778.5 36196 36414.7 36504.1 28495 29492.9 30590.1 33081 34821.4 35780.5 36242.5 36421.9
          21446.8 19938.6 20333.5 28273.3 32851.8 35025 35959.8 36296.9 12039.5 -2947.43 -6272.17 18420.7
          29481.2 33921.5 35601.4 36155.8 -984.259 -41735.3 -106465 1438.95 25625.6 32950.2 35340.2 36065.9
          -7678.06 -75255.5 -21801.9 15326.5 28583.7 33603.7 35477.7 36097.3 16431.8 4506.57 13181 24802.1
          31248.4 34324.4 35665 36154.4 32828.7 33762.1 34611.1 35342 35860.8 36180.4 36351.1 36422
          28314.6 30903.9 32619.1 34272.7 35341.8 35945.8 36249.9 36372.1 15272.5 22786.4 25806.3 31156
          33997.6 35388.2 36024.8 36266.4 -2478.25 2263.14 -1396.43 23177.3 31149.4 34349.3 35649.2 36105.3
          -12640.3 -75459.5 -54664.4 8665.48 26341.9 32786.7 35156.3 35920.1 -28260.5 -143248 -111594 -10678.8
          20940.8 31349.6 34780.4 35800.8 -10837.8 -91263.1 -68225.7 5667.87 25422.2 32455.5 35028.7 35860.9
          10808.2 -4230.81 2939.9 20545.9 29457.5 33562.9 35317.7 35947.4 29649.7 31948.3 33631.4 34775.5
          35514.4 35956.6 36191.9 36290.1 18359.1 27051 31090.5 33460.4 34875.8 35667.6 36067 36228.2
          -39210.5 12573.1 23916.9 29876.9 33245.8 34983.1 35791.6 36099.4 -109251 -13559.7 6482.02 21210.8
          29660.6 33651.8 35321 35903.7 -54264.6 -67901.7 -39954.4 -1618.87 21647 31322.4 34646.7 35672.3
          -60518.1 -144120 -142941 -93274.6 6127.67 28380.7 34036.1 35516.5 -17691.2 -66281.9 -28685.4 -1549.75
          21684.8 31157.1 34575.5 35639 5817.03 -1989.03 7909.78 19299.3 28258.4 32964.5 35031.7 35769.2
          26740.4 30007.8 32522 34091.4 35059.6 35657.9 35989.7 36132 16650.1 24903.5 29936.4 32720.9
          34348 35317.9 35837.5 36054.7 -13831.5 12381 23826.3 29420.2 32679 34563.6 35519.5 35901.5
          -131595 -15923.9 11109 22083.8 29091.5 33125.4 34993.3 35679.3 -154178 -49487.8 -15188.4 2899.21
          20607.2 30510.3 34250.2 35431.9 -150879 -132448 -100717 -71373.1 -4710.92 26633.8 33578.8 35290.9
          -46281.2 -28734 -11062.1 3914.03 21124.8 30743.1 34343.9 35472.5 -6673.44 715.919 11767.7 20783.7
          28329.1 32812.4 34878.9 35631.2 18173.8 26075.7 30656.9 32969.3 34270.3 35159.6 35687.2 35918.7
          -948.467 18797.4 27470.6 31316.2 33337.2 34699.1 35480.8 35814.5 -27118.4 6615.01 21534.6 27985.5
          31524.2 33821.9 35094.2 35623.5 -112566 -18886.5 11308.4 21901.7 28016.1 32247.8 34483.9 35360.4
          -174377 -37721.3 -1887.37 11869.7 22318.5 30078 33789.4 35115.8 -157212 -52994.1 -14778.3 2078.75
          18901.4 29322.4 33661.7 35100.5 -146455 -33205.8 2885.07 16701.9 25972.2 31645.3 34339.3 35323
          -47034.2 -19445.9 9711.81 22660.6 29343.7 33002.5 34796.1 35490.7 -7585.29 19256.9 27812.8 30973.3
          32598.1 34167.6 35168.5 35601.1 -86050.3 3999.75 22684.2 28273.9 30758.2 33319.9 34829.5 35446
          -129928 -14137 14196.5 23398.2 28329.4 32168.1 34326.9 35199.7 -158280 -49302 -775.151 13264.2
          21799.7 29474.3 33386.4 34834.4 -179134 -66994.5 -24382.7 -7061.16 7736.94 25085.8 32197.4 34481.3
          -153159 -50914.6 -7943.6 7164.58 14720.8 26202.7 32515.6 34594.3 -152584 -42788.9 2566.3 18201.7
          25198.6 30712.3 33821.1 34992.8 -160424 -117392 -3596.25 20964.5 28851.2 32614.5 34495.3 35233.9
          15199.5 21926.6 25709.4 27330.4 28500.1 31978.4 34204.4 35097.6 -3794.52 11207.1 18804.5 21773.5
          22561.4 29823.5 33528.3 34846.8 -28678.4 -11759.8 3770.9 13599.7 21558.8 29166.1 33121.9 34598.2
          -60312.6 -58029.2 -25602.9 -8251.19 7310.38 24745.3 31845.4 34155.1 -116690 -155180 -133586 -108735
          -69275.6 12822.7 29532 33612.4 -158053 -90647.5 -27152.2 -10811.6 -24185.8 11529.7 29852.4 33773.9
          -65742.3 -21581.6 4643.93 15763.9 19470.2 27766.3 32772.2 34431.4 -37211.6 -16663.6 10815.1 22740.5
          28007 31789.5 33935.3 34768.3 21423.1 21013 20959.8 19296.2 18287.2 27361.7 32493.2 34306.2
          11010.6 5202.3 6990.84 2954.26 -13590.8 20390.8 30902.2 33857 -13446.7 -62164.3 -33861.9 -9281.98
          10936.3 25212.7 31623.1 33813.5 -63638.2 -152796 -38127.2 -3063.14 14044.7 25879.7 31567.9 33632
          -195049 -168447 -47194.4 -14787 3528.69 22842.9 30766.2 33343.3 -151473 -85664 -12303.3 6610.17
          13779.2 24936.6 31288 33435.4 -42279.1 -13002.1 8949.9 19247.7 24602.5 29598.3 32580.2 33739.5
          -7765.26 4149.65 16596.6 24170.7 28570.1 31555.8 33233.8 33905.3 22058 19939.9 14963 6510.91
          6224.74 20447 30384.9 33249.4 13953.7 6528.06 -11290.5 -56000.2 -68911.3 -531.807 26934.9 32449.6
          -5861.38 -35243.2 -121194 -103775 -6710.46 19392.3 29557.8 32604.4 -55690 -138343 -41178.8 -11931.2
          12591.6 24901.3 30538.5 32570.4 -168994 -75447.3 -17570.4 2640.49 14808.6 25169 30370.5 32317.1
          -158983 -53204.3 -7799.31 8804.01 19030.6 26526 30541.8 32120.9 -53638.9 -19702.2 4780.82 17177.4
          24215.8 28640.3 30992.7 31962.2 -9039.45 2691.54 14298.4 22179.2 27040.9 29924.1 31350.6 31836
          18824.3 18880.3 17235.9 16403.7 19252.1 26134.3 30564.5 32127.2 10552.2 10569.8 6233.99 1593.58
          6129.59 20861.1 28905.8 31325.9 -1861.94 -6109.96 -17524.6 -10268.1 11033.2 23176.6 28856.8 30782.2
          -40581.4 -34754.6 -11870.6 602.501 12102.7 22983.1 28328.2 30277.9 -165906 -70748.2 -21594.9 -5330.37
          406.804 19439.7 27118.4 29648.4 -155682 -137368 -42632.5 -16576.7 6383.58 20518.1 26578 28810.4
          -157826 -102428 -24476.1 3824.48 16871.3 23435.2 26376.7 27709 -32056.1 -17080.2 2338.53 15228.6
          22194.8 25632.2 26837.7 26805 6054.18 9916.56 9999.05 16355.5 22055.2 26457.7 28670.4 29135.6
          -16009.4 -2826.93 3247 10905.4 17892.4 24036.9 26989.9 27481.7 -14960.6 -16407.3 -7522.83 1618.71
          12699.5 21221.9 24924.5 25848.9 -35019.8 -48350.6 -22721.6 -13938.1 -6024.16 15160.6 22581.4 24901.1
          -98054.9 -171155 -70637.6 -45464.9 -93460.9 1568.8 19616.9 24124.3 -116896 -165674 -173467 -137785
          -41997.2 3833.77 17240 21872.2 -64950 -154167 -129901 -28489.2 -378.215 10266.2 14513.3 17848
          -15543.5 -32453.7 -19704.6 3428.92 12954.7 16520.9 16444.4 13813.2 -25558 -15616.7 -23694.2 1432.03
          15572 21747.5 23139.4 21719.1 -143444 -62803.2 -33915.9 -4319.07 11836.6 18591.5 19377.3 16396.2
          -74555.4 -95809.2 -50335.9 -26876.8 1540.66 11870.8 13501.3 12060.7 -92801 -152967 -78370.4 -82830.9
          -17528.4 2273.51 9145.42 11606.6 -176109 -156717 -169150 -80765.9 -36169.9 -7289.02 7820.26 13697.4
          -167162 -159414 -129409 -58745.7 -49222.6 -28279.5 -3017.44 8054 -35688.3 -47975 -36132.8 -16733.4
          -23737.5 -26020.8 -21031.4 -6080.61 -715.511 -5558.56 -2597.39 1965.45 -2019.94 -2986.29 -8467.49 -25192.4
          -19849.6 -54122.6 -159539 -43578.9 -1196.13 11410.7 11427.1 3163.91 -80781.7 -166028 -165515 -47694.6
          -5305.38 5283.18 635.561 -18048.1 -170004 -171926 -180168 -146307 -30663 -13912.6 -21178.5 -31646
          -173963 -181045 -212096 -170528 -70399.2 -40607.5 -32286.1 -27864.9 -170970 -167211 -164623 -178325
          -95383.3 -50067.7 -19368.5 -7442.92 -45455.8 -51398.3 -53042.9 -78193.5 -184037 -164429 -57615.5 -19950.9
          -1779.88 -5808.95 -9687.17 -30688.3 -134330 -168877 -159632 -69983.2 12734.7 10025.7 5530.27 -8461.28
          -44863.7 -47386.4 -69457.1 -162819 -4373.58 -35967.4 -173148 -170540 -36390.1 -8306.92 -11697.7 -51277.9
          -29060.2 -42625.5 -81998.2 -79354.1 -27858.1 -18817.5 -41736.6 -154179 -139350 -65128.6 -81287.9 -104635
          -66841.6 -93102.5 -154913 -178912 -84120.6 -56693.5 -80761.8 -230029 -176072 -176737 -171065 -175091
          -30988.1 -36452.1 -62342.4 -176131 -175456 -119332 -72092.4 -48215.3 438.64 -3886.23 -15967.7 -63012.5
          -181488 -242881 -187607 -70281 15254.7 12006.8 2531.13 -32560 -166406 -107840 -209956 -207403
          21254.4 18309.8 8770.76 -25502.6 -156229 -62508.7 -83075.4 -179249 10870.6 -4548.22 -59186.4 -196634
          -87291.8 -49350.5 -45121.3 -32156.1 4143.56 -5913.03 -47200.8 -164747 -59714.1 -27449.7 -30399.6 -60509.5
          -14358.5 -16626.2 -90193.6 -175515 -76278.5 -48294.5 -57745.8 -166907 -5029.14 -9602.01 -49510.8 -168172
          -210855 -160816 -68108.9 -133303 7820.81 2744.6 -15423.5 -70535 -166852 -179652 -64290.1 -37653.2
          17877.8 14597.7 5635.82 -17033 -66517.9 -165593 -163618 -75508.7 23874.8 21459 15036.1 -747.086
          -35039.6 -50002.2 -131722 -169564 26628.6 24402.9 17974.6 -139.847 -58033.7 -21111.5 -37733.3 -104717
          20056.9 10836.3 -21012.4 -148766 -163854 -160080 -153799 -79001.2 18461 11879.6 -7647.04 -51044
          -47054.3 -36937.3 -31497.4 -18664 14649.5 8711.76 -14394.4 -55322.5 -25586.4 -11940.6 -9664.71 -24860.9
          16325.8 8854.13 -21910.4 -146008 -54925.6 -26424.8 -7768.68 -14331.5 20998.5 16462.5 3320.66 -26631.8
          -36039.2 -29289.4 -7991.13 -162.919 25432 22873.9 16746.2 5497.68 -6998.63 -23161.3 -23832.6 -8796.82
          28464.6 26771.6 22897.3 15871.5 5935.54 -662.767 -13666.7 -23963 29963.6 28529.9 25084.9 18117
          6127.88 8305.77 2572.8 -9475.61 25798.6 21160.1 8886.01 -17784.5 -29341.9 -26936.8 -19995.8 -2628.91
          25159.4 21126.9 11661.5 -3301.77 -4422.41 -38.5338 4269.64 9889.4 23816.7 19137.8 7286.35 -10439
          -85.7591 8595.18 12569.5 12106.1 23875.4 17893.7 650.293 -37085.2 -9050.06 6529.44 14254.7 15155.1
          26293.2 22540.9 13538 -864.071 2616.82 8863.34 15080.9 17887.7 28962.4 26921.6 22606.8 16643.5
          14346.9 12754.1 13459.4 16262.6 30908 29696.5 27256.6 23858.2 20864.4 18912.5 16347.2 14245
          31896 30981.1 29100.3 26228.3 22910.9 22068.3 20115.8 17414.8 28987.9 26478.8 21086.7 13061
          9862.12 11331.5 14538.5 19213 28350.6 25480.2 19308.4 10905.6 13085.5 16847.2 19945.5 22463.5
          27137.5 22595.6 10592.5 -12947.4 6763.15 17674.3 22336.9 23912.2 26453.1 19234.7 -7430.93 -136291
          -11524.2 15020.7 22828.7 24961.4 28357.8 24301.1 13516 -7724.47 10066.4 19708.3 24171.2 25925.4
          30538.3 28613.4 24499.5 19113.7 21498.5 23679.8 25081.5 26057 32100.2 31128.4 29287.1 27179.6
          26704.7 26696.2 26465 26168.5 32881.4 32246.5 31077.4 29673 28647.7 28230.4 27678.4 27053.9
          30403 28753.2 25682.9 22183.8 21246.7 22431 24320 26150.6 29785.7 27696.3 23680.1 19301.4
          20702.5 23461.5 25746.4 27220 28740.3 25453.3 18183.4 8549.32 16185.6 22819.7 26412.2 27933.2
          28161.1 23472.3 11013.3 -13052.6 9342.5 21489.9 26619.7 28444.5 29512.7 26512 19845 11079.6
          18388.6 24491.5 27732.8 29073.2 31264 29724 26764.6 23702 25383.5 27499.4 28878.3 29564.6
          32584.3 31799.5 30421.7 29101.8 29131.4 29581.4 29888.4 29996.2 33257.3 32765.3 31926.9 31082.3
          30693.3 30619.5 30539.8 30418.4
        </DataArray>
        <DataArray type="Float32" Name="saturation" NumberOfComponents="1" format="ascii">
          0.302069 0.302069 0.302071 0.302076 0.302081 0.302086 0.302089 0.30209 0.302049 0.302049 0.302054 0.302063
          0.302073 0.302081 0.302086 0.302089 0.302003 0.302001 0.302012 0.302033 0.302054 0.302071 0.302082 0.302086
          0.301917 0.301905 0.301936 0.301983 0.302026 0.302056 0.302074 0.302082 0.301788 0.301744 0.301823 0.301919
          0.301992 0.30204 0.302067 0.302079 0.301674 0.301579 0.301724 0.301872 0.301971 0.30203 0.302063 0.302076
          0.301758 0.301713 0.301793 0.301896 0.301978 0.302032 0.302063 0.302076 0.301839 0.301823 0.301863 0.301929
          0.301991 0.302037 0.302065 0.302077 0.301934 0.301935 0.30194 0.301951 0.301962 0.301972 0.301978 0.30198
          0.30189 0.301889 0.301901 0.301922 0.301945 0.301962 0.301973 0.301978 0.301777 0.301766 0.3018 0.301854
          0.301905 0.301941 0.301963 0.301973 0.301541 0.301479 0.301589 0.301729 0.301839 0.301909 0.301949 0.301965
          0.301117 0.300878 0.301213 0.301545 0.301755 0.301873 0.301933 0.301957 0.30066 0.300054 0.300811 0.301388
          0.301695 0.301849 0.301923 0.301953 0.30105 0.300805 0.301141 0.301495 0.301725 0.301856 0.301925 0.301953
          0.301361 0.301282 0.301418 0.301609 0.301766 0.30187 0.30193 0.301955 0.301757 0.301759 0.301774 0.301799
          0.301827 0.301849 0.301863 0.301869 0.301645 0.30164 0.301673 0.30173 0.301786 0.301827 0.301852 0.301863
          0.301344 0.301293 0.301399 0.301555 0.301689 0.301779 0.30183 0.301852 0.300642 0.300361 0.300754 0.301204
          0.301517 0.301701 0.301796 0.301835 0.299199 0.298 0.299432 0.300619 0.301278 0.301606 0.301758 0.301817
          0.297317 0.293579 0.2977 0.300038 0.301088 0.301541 0.301735 0.301807 0.299033 0.297799 0.299182 0.300479
          0.301205 0.301569 0.301741 0.301808 0.300185 0.299833 0.300291 0.300902 0.301344 0.301612 0.301754 0.301813
          0.301502 0.301509 0.301546 0.301606 0.301667 0.301713 0.301742 0.301754 0.301251 0.301237 0.301317 0.301451
          0.301578 0.301668 0.301721 0.301743 0.300554 0.300396 0.300657 0.301046 0.301363 0.301566 0.301675 0.30172
          0.298846 0.297916 0.298985 0.300171 0.300959 0.301392 0.301603 0.301686 0.295042 0.290445 0.295226 0.298574
          0.300346 0.301167 0.30152 0.301649 0.28905 0.270488 0.289271 0.296756 0.299799 0.301 0.301465 0.301626
          0.294645 0.290054 0.294127 0.298152 0.300173 0.301089 0.301484 0.30163 0.297829 0.296656 0.297789 0.299461
          0.300582 0.301207 0.301517 0.301641 0.30112 0.301146 0.301227 0.301351 0.301472 0.301561 0.301613 0.301636
          0.30063 0.300622 0.300779 0.301053 0.301305 0.301478 0.301575 0.301616 0.29932 0.299036 0.299457 0.300245
          0.300889 0.301286 0.301492 0.301575 0.296297 0.294537 0.296045 0.298421 0.300069 0.30095 0.301359 0.301513
          0.289864 0.282085 0.288309 0.294925 0.298733 0.300482 0.301197 0.301445 0.279828 0.252512 0.275506 0.290524
          0.297409 0.300105 0.301085 0.301403 0.288872 0.280391 0.282435 0.293683 0.298361 0.300335 0.301132 0.301413
          0.294377 0.291925 0.293231 0.29696 0.299346 0.300609 0.301206 0.301436 0.300517 0.300612 0.300788 0.301025
          0.30124 0.30139 0.301477 0.301513 0.299617 0.299721 0.300015 0.300521 0.300964 0.301257 0.301417 0.301483
          0.297431 0.297246 0.29774 0.299138 0.300271 0.300946 0.301285 0.301419 0.293263 0.291153 0.291799 0.295939
          0.298861 0.300385 0.301069 0.301322 0.285824 0.276832 0.277511 0.289494 0.296447 0.299569 0.300799 0.301213
          0.275076 0.248634 0.247319 0.279805 0.29374 0.298855 0.300604 0.301144 0.282848 0.271875 0.274807 0.288288
          0.295921 0.29934 0.300701 0.301164 0.290105 0.286157 0.288073 0.293737 0.297717 0.299848 0.300833 0.301205
          0.299465 0.299785 0.300183 0.300616 0.300969 0.301203 0.301333 0.301388 0.297632 0.298255 0.298943 0.299852
          0.300567 0.301013 0.301249 0.301346 0.293452 0.294357 0.295377 0.297788 0.29956 0.300569 0.301063 0.301257
          0.287585 0.286438 0.286735 0.293254 0.297561 0.299772 0.30076 0.301122 0.280946 0.272421 0.270793 0.285317
          0.294347 0.298635 0.300379 0.30097 0.273422 0.25737 0.242974 0.274701 0.290957 0.297658 0.300103 0.300874
          0.270129 0.24885 0.264148 0.283132 0.293532 0.298313 0.300248 0.300907 0.283898 0.276394 0.28169 0.290269
          0.296001 0.299047 0.300446 0.300969 0.297538 0.298473 0.299342 0.300105 0.300654 0.300997 0.30118 0.301257
          0.29329 0.295673 0.297331 0.298994 0.300105 0.300745 0.301071 0.301203 0.283095 0.288635 0.29111 0.295912
          0.298712 0.300153 0.30083 0.301089 0.272657 0.275148 0.273209 0.288946 0.295906 0.299072 0.300429 0.300916
          0.267892 0.248807 0.253735 0.278833 0.291565 0.297496 0.29991 0.300718 0.261768 0.237644 0.242143 0.268757
          0.287197 0.296097 0.299518 0.300591 0.268686 0.245645 0.25041 0.277058 0.290786 0.29717 0.299776 0.300655
          0.28016 0.271783 0.275519 0.286896 0.294325 0.298272 0.300079 0.300747 0.294501 0.296674 0.298341 0.299512
          0.300287 0.300757 0.301009 0.301115 0.285272 0.292177 0.29585 0.298168 0.299617 0.300449 0.300875 0.301048
          0.258142 0.281292 0.289543 0.294711 0.297953 0.299729 0.300581 0.30091 0.242518 0.267494 0.277531 0.287404
          0.294512 0.298361 0.300083 0.3007 0.25384 0.250485 0.257912 0.273095 0.28774 0.296071 0.299379 0.300454
          0.252245 0.237534 0.237683 0.245272 0.277324 0.29335 0.298752 0.300289 0.26577 0.25086 0.261618 0.27313
          0.28777 0.295913 0.299305 0.300419 0.277144 0.272906 0.278377 0.285962 0.29324 0.297673 0.299779 0.300557
          0.291908 0.294833 0.297235 0.298808 0.299808 0.300439 0.300792 0.300945 0.284051 0.290353 0.294766 0.297431
          0.299071 0.300079 0.30063 0.300862 0.267378 0.281167 0.289469 0.294291 0.29739 0.299293 0.300292 0.300698
          0.239186 0.266496 0.280351 0.288081 0.293991 0.297833 0.299739 0.300461 0.236302 0.25513 0.266803 0.275496
          0.286942 0.295302 0.29897 0.3002 0.236697 0.239069 0.243946 0.249699 0.271547 0.291816 0.298288 0.300051
          0.256033 0.261601 0.268586 0.27606 0.287337 0.295521 0.299067 0.300242 0.270602 0.274314 0.280771 0.287077
          0.293303 0.297522 0.29962 0.30041 0.285138 0.291338 0.295439 0.297677 0.298991 0.299913 0.30047 0.300716
          0.27344 0.285592 0.292543 0.296065 0.298045 0.299433 0.300251 0.300605 0.262175 0.277609 0.287653 0.292997
          0.296265 0.298534 0.299845 0.300402 0.241989 0.265289 0.280477 0.287939 0.293025 0.296966 0.299211 0.300124
          0.23405 0.258608 0.272957 0.280836 0.288265 0.294898 0.298501 0.299867 0.235946 0.254177 0.266975 0.275047
          0.285668 0.294201 0.298371 0.299851 0.237241 0.260072 0.275489 0.284087 0.29125 0.296381 0.299062 0.300085
          0.255819 0.265067 0.279475 0.288535 0.294221 0.29771 0.299534 0.300262 0.270172 0.28593 0.292845 0.295739
          0.29731 0.298886 0.299922 0.300378 0.24664 0.276108 0.288554 0.293254 0.295535 0.298027 0.299569 0.300214
          0.239416 0.267247 0.282365 0.289124 0.293304 0.296888 0.299049 0.299955 0.235822 0.255182 0.27353 0.281745
          0.287859 0.29434 0.298094 0.299574 0.233557 0.250694 0.263173 0.270419 0.278273 0.290505 0.296917 0.299208
          0.236423 0.254738 0.270005 0.277933 0.282719 0.291446 0.297229 0.299325 0.236492 0.257054 0.275313 0.285158
          0.290599 0.295492 0.298533 0.299739 0.235576 0.241241 0.272097 0.287215 0.293773 0.297326 0.299222 0.299991
          0.283045 0.287958 0.291028 0.292421 0.293457 0.296704 0.298924 0.299848 0.271998 0.280413 0.285597 0.287839
          0.288456 0.294662 0.298237 0.299587 0.261621 0.268277 0.27598 0.281967 0.287672 0.294059 0.297829 0.299329
          0.252296 0.252868 0.262724 0.269862 0.278019 0.290222 0.296575 0.298873 0.241348 0.236184 0.238914 0.242602
          0.250171 0.281455 0.294393 0.298322 0.235848 0.24576 0.262163 0.268698 0.263246 0.280618 0.294688 0.298485
          0.250987 0.264232 0.276472 0.283433 0.286088 0.292803 0.297482 0.299157 0.258769 0.26619 0.280164 0.288598
          0.293017 0.296521 0.298649 0.299505 0.287567 0.287252 0.287211 0.285959 0.28522 0.292448 0.297207 0.299028
          0.280288 0.27679 0.27783 0.275527 0.267481 0.286778 0.295671 0.298569 0.267543 0.251841 0.259854 0.269388
          0.280241 0.290611 0.29636 0.298525 0.251486 0.236467 0.25848 0.272363 0.282264 0.291172 0.296307 0.298341
          0.232004 0.234683 0.255773 0.266972 0.275845 0.288679 0.295543 0.298051 0.236626 0.246716 0.268038 0.277606
          0.282086 0.290381 0.296038 0.298143 0.257206 0.267735 0.279006 0.285923 0.290104 0.294454 0.297292 0.29845
          0.270088 0.276193 0.284013 0.28975 0.293519 0.296295 0.297941 0.298618 0.288061 0.286439 0.282884 0.277548
          0.277381 0.286821 0.295184 0.297957 0.282203 0.277558 0.268484 0.253387 0.250254 0.273657 0.292076 0.297164
          0.27099 0.259401 0.24067 0.243423 0.270585 0.286031 0.294417 0.297316 0.253468 0.238278 0.257538 0.268202
          0.281304 0.290351 0.295328 0.297283 0.234624 0.248809 0.265819 0.275354 0.282779 0.290574 0.295171 0.297034
          0.235741 0.254121 0.270072 0.278917 0.285763 0.291723 0.295331 0.296842 0.254006 0.264965 0.27655 0.284423
          0.289787 0.293583 0.295757 0.296688 0.269499 0.275382 0.282434 0.288156 0.292168 0.294755 0.296098 0.296566
          0.285612 0.285653 0.284465 0.283878 0.285927 0.291388 0.295352 0.296848 0.279999 0.28001 0.277386 0.274784
          0.277325 0.287136 0.293822 0.296075 0.27297 0.270871 0.265838 0.268941 0.280302 0.288946 0.293778 0.295558
          0.25772 0.259561 0.268228 0.274254 0.280987 0.288791 0.293303 0.295084 0.234961 0.249839 0.264227 0.271246
          0.27415 0.286066 0.292236 0.2945 0.236125 0.238407 0.257101 0.266226 0.277474 0.286875 0.291768 0.293736
          0.235875 0.243652 0.263139 0.27601 0.284207 0.289153 0.291595 0.292753 0.260457 0.266019 0.275189 0.283065
          0.288168 0.290963 0.291992 0.291964 0.277282 0.279602 0.279653 0.283844 0.288058 0.291665 0.29361 0.294031
          0.26646 0.272481 0.275689 0.280222 0.284935 0.289641 0.292124 0.292553 0.266898 0.266295 0.270202 0.274798
          0.281374 0.287412 0.290371 0.291146 0.259474 0.255447 0.263797 0.267332 0.270912 0.283018 0.288472 0.290351
          0.244411 0.234391 0.249864 0.256269 0.245238 0.274771 0.286197 0.289712 0.241316 0.234987 0.234146 0.238352
          0.257291 0.276015 0.284468 0.287916 0.251173 0.236304 0.23942 0.261687 0.273737 0.27982 0.282579 0.284903
          0.266654 0.260323 0.264964 0.27579 0.281541 0.28396 0.283907 0.282109 0.26274 0.266623 0.26343 0.274697
          0.283301 0.287819 0.288916 0.287796 0.237619 0.251687 0.259836 0.271739 0.280815 0.285441 0.286019 0.283873
          0.249001 0.244811 0.254896 0.262262 0.274756 0.280837 0.281902 0.280959 0.245359 0.236446 0.248191 0.247277
          0.265836 0.275153 0.279126 0.280668 0.233869 0.236004 0.234607 0.247696 0.259102 0.270311 0.278323 0.282032
          0.234823 0.235691 0.239489 0.252687 0.255204 0.261761 0.272386 0.278464 0.259257 0.255552 0.259114 0.266161
          0.263414 0.262571 0.264445 0.270885 0.273561 0.271136 0.272597 0.274986 0.27289 0.272401 0.269762 0.262874
          0.264907 0.253878 0.235677 0.25682 0.273312 0.280542 0.280553 0.275643 0.247693 0.234948 0.235004 0.255631
          0.271258 0.276837 0.274271 0.265626 0.234514 0.234309 0.233452 0.237259 0.260931 0.267343 0.264388 0.260596
          0.234093 0.233364 0.230481 0.234458 0.249917 0.257712 0.260379 0.261908 0.234411 0.234818 0.235103 0.23364
          0.244888 0.25497 0.265097 0.270239 0.256271 0.254606 0.254164 0.248228 0.233064 0.235125 0.252973 0.264867
          0.273012 0.271015 0.269204 0.260922 0.238813 0.234636 0.235666 0.250011 0.281397 0.27967 0.276979 0.269765
          0.256443 0.255719 0.25013 0.235305 0.271712 0.259167 0.234179 0.234457 0.259031 0.269836 0.268304 0.254639
          0.261487 0.257103 0.247445 0.247986 0.261911 0.265317 0.257369 0.236302 0.238147 0.251131 0.247589 0.243279
          0.25073 0.245304 0.236215 0.23358 0.24702 0.253209 0.247697 0.229017 0.233873 0.233804 0.234401 0.233975
          0.26082 0.259012 0.251798 0.233867 0.233937 0.240948 0.24954 0.255485 0.274167 0.271953 0.266477 0.251636
          0.233319 0.228044 0.232713 0.249944 0.283083 0.280925 0.275294 0.260287 0.234906 0.242748 0.230665 0.230887
          0.287437 0.285236 0.278897 0.26276 0.236061 0.251758 0.247228 0.233546 0.2802 0.271627 0.252576 0.231856
          0.246399 0.255168 0.256368 0.260423 0.276189 0.270965 0.255771 0.235089 0.252445 0.262056 0.261022 0.252247
          0.267153 0.266205 0.245845 0.233931 0.248632 0.255463 0.25294 0.234851 0.271392 0.269242 0.255124 0.234713
          0.230587 0.235531 0.250437 0.238952 0.278324 0.275411 0.266704 0.249887 0.234857 0.233505 0.25133 0.258629
          0.284924 0.282636 0.277039 0.266038 0.250805 0.234996 0.235215 0.248796 0.289509 0.287595 0.282933 0.273545
          0.259468 0.254988 0.239168 0.234562 0.291811 0.28994 0.284994 0.273862 0.252867 0.264414 0.258604 0.243265
          0.286527 0.280178 0.264452 0.236955 0.235189 0.235615 0.236347 0.248059 0.285346 0.280843 0.270144 0.254703
          0.255813 0.258857 0.260646 0.265378 0.282671 0.278861 0.267138 0.253563 0.26273 0.268197 0.269214 0.262996
          0.283824 0.278948 0.264106 0.237296 0.253667 0.262425 0.270087 0.267165 0.287241 0.283919 0.275729 0.26235
          0.259144 0.261407 0.269983 0.27385 0.290794 0.288704 0.284118 0.27696 0.270448 0.26363 0.263378 0.26961
          0.293425 0.291935 0.288723 0.283507 0.277213 0.273589 0.267448 0.26333 0.294791 0.293483 0.290504 0.285097
          0.277324 0.278615 0.275317 0.2693 0.291103 0.287365 0.278967 0.265732 0.261388 0.26224 0.26485 0.272581
          0.290566 0.287339 0.280703 0.272243 0.271688 0.273915 0.27626 0.279585 0.289461 0.285842 0.278005 0.268864
          0.27389 0.278791 0.281289 0.280989 0.289509 0.284936 0.274279 0.258809 0.269494 0.277559 0.282404 0.283015
          0.291524 0.28844 0.281926 0.273484 0.275341 0.278954 0.282964 0.284931 0.293874 0.292065 0.288492 0.284046
          0.282466 0.28141 0.281874 0.283779 0.295677 0.294545 0.292356 0.289495 0.287138 0.285676 0.283839 0.282398
          0.296624 0.295746 0.293999 0.291468 0.288734 0.288069 0.286571 0.284592 0.293897 0.291683 0.287308 0.281611
          0.279568 0.280492 0.282596 0.285898 0.293323 0.290835 0.285968 0.280222 0.281627 0.28419 0.286443 0.288379
          0.292252 0.288483 0.280024 0.267758 0.277696 0.284778 0.288279 0.289539 0.291661 0.285914 0.270245 0.23855
          0.268381 0.282923 0.288668 0.290401 0.293329 0.289856 0.281911 0.270107 0.279695 0.286266 0.28975 0.291211
          0.295328 0.293558 0.290019 0.285825 0.287625 0.289351 0.290501 0.291322 0.296822 0.295886 0.294169 0.292289
          0.291877 0.29187 0.291671 0.291417 0.29759 0.296965 0.295838 0.294523 0.293589 0.293215 0.292726 0.292179
          0.295201 0.293684 0.291005 0.288159 0.287431 0.288353 0.289872 0.291402 0.294627 0.292742 0.289351 0.285963
          0.287015 0.289174 0.291059 0.292324 0.293673 0.290812 0.285145 0.278763 0.283726 0.288661 0.291626 0.292951
          0.293154 0.289183 0.28029 0.267713 0.279247 0.287619 0.291804 0.293407 0.294376 0.291711 0.286368 0.280332