<?xml version="1.0"?>
<VTKFile type="UnstructuredGrid" version="0.1" byte_order="LittleEndian">
  <UnstructuredGrid>
    <Piece NumberOfCells="2597" NumberOfPoints="3456">
      <CellData Scalars="p (Pa)">
        <DataArray type="Float32" Name="p (Pa)" NumberOfComponents="1" format="ascii">
          37134.6 37114.5 37091.3 37085.3 37096.8 37124.8 37146.9 37098.6 37067.5 37034 37033.8 37056.5
          37100 37131.9 37045.5 36995.1 36944 36960.8 37007.4 37073.5 37117.2 37017 36953.5 36891.4
          36930.7 37006.3 37079.4 37122.6 37051.5 37005.3 36963.9 36996.9 37057.6 37113.3 37145.4 37108
          37082.9 37062.3 37080.8 37117 37150.8 37170.4 37144.8 37131 37120.4 37130.7 37152.4 37173.3
          37185.5 37065.4 37037.8 37005 36995 37007.2 37046.2 37077.6 37017.3 36972.7 36922.6 36920.6
          36946.7 37009.7 37056.3 36944.1 36867.7 36784.9 36809.8 36871.3 36970.4 37035.7 36902.4 36801.2
          36693.6 36754.7 36874.9 36983.3 37045.3 36952.3 36881.9 36814.3 36866.3 36955.7 37033.5 37077.4
          37030.1 36993.9 36962.6 36990 37040 37085.3 37111.3 37079.3 37060.4 37045.4 37059.6 37088.2
          37115.4 37131.3 36969.3 36924.6 36869.1 36849 36860.6 36925.9 36979.4 36893.9 36817.3 36725.6
          36718.4 36747.9 36860 36943.2 36774.2 36632.1 36464 36507 36601.8 36787.5 36908.2 36699.7
          36500 36263.2 36365.7 36619.7 36820.7 36928.8 36787.2 36655.7 36518 36616.4 36780.8 36911.9
          36983.2 36914.3 36851.6 36793.4 36842.8 36925.5 36996.8 37037 36991.5 36960.9 36935.4 36958.7
          37002.9 37044 37067.9 36838.4 36762.3 36663.3 36621.8 36625.2 36743.2 36840.2 36714 36574.5
          36395.6 36375.4 36397.8 36614.8 36774.5 36506.5 36225.7 35857.7 35929.6 36083.4 36469 36710.6
          36365 35947.1 35387.1 35502.8 36137.1 36552.8 36756.2 36528.5 36269 35970.6 36156 36491.9
          36730.6 36853.6 36748 36633.1 36518.4 36612.1 36758.9 36877.7 36943 36875.3 36823.2 36777.3
          36818.2 36890.4 36955.3 36992.8 36660.8 36531 36353.1 36269.2 36241.7 36461 36640.1 36455
          36199 35843 35793.6 35767.7 36205.3 36519 36092.3 35531.3 34695.9 34801.8 35049 35899.9
          36399.4 35821.1 34941.8 33582.3 33400.1 35189.2 36105.6 36498.7 36130.3 35617.7 34965.3 35280.7
          36011.5 36459.2 36674 36511.6 36300.8 36073.8 36250 36516.5 36716.2 36822.5 36721.9 36633.1
          36550.2 36622.8 36741.1 36843.8 36902.4 36421.2 36203 35885.9 35721 35604.7 36018.7 36349.1
          36085.5 35620.7 34905.8 34801 34599.3 35508.3 36127.5 35458.2 34342 32368.5 32523.9 32864.2
          34854.9 35902.9 34945.2 33115.9 29744.1 27536.1 33251.3 35350.9 36113.1 35525.6 34533 33118.2
          33557.2 35207.7 36052.7 36424.7 36179.1 35799.8 35357.5 35681.4 36164.6 36496.5 36667.1 36520.5
          36371.8 36224.3 36351.8 36543.1 36702.7 36792.6 36101.3 35742.8 35186 34872.2 34530.6 35322
          35926.5 35566.3 34739.4 33293.8 33119.8 32360.8 34310.3 35527.7 34503.3 32301.1 27268.4 27825.1
          27808.2 32893.5 35113.2 33556.1 29808.5 21110.4 5877.3 29211.9 34093.1 35542.5 34626.2 32761.6
          29742.7 30146.1 33898.9 35453.1 36082.1 35719.8 35058.5 34220.9 34815.2 35663.8 36200.4 36467.2
          36259.5 36017.7 35762.4 35983 36283.4 36524.5 36658.8 35682.4 35110.6 34156.7 33575.7 32694.1
          34231.5 35321.3 34855.2 33430.1 30498.4 30356.8 27845.2 32247.2 34623.8 33104.8 28804.4 13414.4
          18310.4 13386.1 29129 33887.1 31398 23802.7 -492.499 -136397 20971 32100.7 34724.8 33328.7
          29946.7 23613.5 23927.5 31958.4 34603.1 35622 35103.8 33994.8 32458.3 33614.7 34983.4 35810.1
          36213.9 35929.3 35550.5 35123.3 35500.2 35950.7 36302.8 36497.3 35148.4 34271 32704.1 31635.8
          29487 32553.3 34479.2 33916.9 31586.8 25787.2 26065.6 17688.5 28691 33305.4 31144.8 22989.9
          -50462 9147.5 -55234.7 21679.8 32086.2 28103.7 12626.7 -61980 -20803.3 13099 29244.2 33612.8
          31525.6 25575.6 12334.7 22479.8 29608.7 33461.9 35025.9 34310.9 32525.5 29754.9 32262.5 34113.5
          35312.2 35901.2 35525.9 34958.1 34268.9 34902.5 35538.7 36033.2 36305.9 34490.9 33204.2 30801.4
          28788.4 23641.8 30048 33359.8 32736.4 29238.1 21028.4 18942.3 -10356.5 22509 31477.7 28575.6
          16579.9 -35085.1 -7029.61 -254008 8359.98 29725.2 23068 -9688.44 -327794 -22763.1 -15087.8 24926.1
          32187.7 29122.7 18705.3 -13609.5 17760.5 25976.9 31957.2 34286 33344.4 30579.3 25423.5 30462.6
          33002.6 34697.7 35528.3 35055.8 34248.6 33176.1 34187.1 35046 35715.6 36085.7 33713.5 31899
          28280.2 24781.9 12191.2 26527.4 31970.7 31316.4 26107 12445.9 6027.45 -158570 11295.3 29131.7
          25235.3 5490.19 -97307.4 -28516.3 -349853 -5317 27209.3 15173.1 -52254.7 -364370 -33506.5 -62250
          19585.5 30526.5 26115.8 7310.02 -101369 9032.45 21117.1 30111.5 33415.5 32256.4 28186.4 18125.5
          28216.2 31666 33973.7 35102.3 34540.8 33470.2 31900 33394.9 34485.3 35356.5 35841.5 32838.9
          30408.3 25167 19890.3 -3443.87 22347.6 30416.6 29739.2 22187 -4019.41 -11971.2 -309887 -3037.02
          26541.2 21303.5 -16539.3 -323032 -55250 -362758 -14479.3 25034.7 2488.44 -284776 -437147 -40663.4
          -39737.7 14951.4 28742.5 22949.9 -9834.73 -288215 -2319.83 16607.3 27995.2 32446.5 31182.1 25878.1
          9345.77 26008.1 30186 33163.1 34640.4 34017.7 32736.9 30759.6 32628.8 33883.7 34969.5 35582.8
          31904.5 28880 22131.2 15067 -17002.6 18436.9 28885.2 28196 18849.2 -16221.4 -27980.9 -349843
          -14099.5 24227.4 18344 -25330.1 -361428 -73416.8 -364009 -16115.8 23610.7 2071.41 -136191 -371638
          -53685.3 -77089.3 7110.06 26789.8 21135 -6906.52 -173379 -3467.34 8835.16 25376.8 31423.4 30290.5
          25013.8 11901.4 24858.1 28524.6 32297.6 34171.3 33521.7 32178.6 30320.2 32005.7 33273.3 34576.2
          35323.4 30927.6 27350.6 19407.2 10928 -25569.6 15412.6 27528.5 26696.7 16105.7 -22965.1 -38674.1
          -358796 -19489.6 22496.4 15632.9 -31026.9 -366025 -81243.5 -130691 -6355.23 23060.5 -1000.71 -100019
          -372024 -78736.9 -330360 -7441.02 24829.1 19345 -4443.23 -50473.2 -3477.79 -6202.6 22421.1 30465.6
          29476 24592.8 17256.3 24130.2 26733.3 31468.7 33738.1 33056.2 31728.6 30249.6 31482 32692.8
          34206.5 35079.9 29903.2 25722.7 16699.8 7311.8 -30425.1 13279.8 26414.6 25184.1 13505.7 -25431.3
          -47891.6 -362000 -21872.4 21269.7 12601.6 -40528.1 -372547 -137248 -90418.6 -1966.24 22708.3 -14963.7
          -322963 -380431 -134559 -356273 -14371.9 23590.1 16648.5 -14546.5 -37635.8 -9977.18 -14602.4 20531.6
          29772.9 28650.9 23681.5 19114.1 23051.9 25418.4 30842.1 33387.3 32623.7 31296.6 30112.6 30978.8
          32201.9 33891.9 34867 28811.4 23744.2 12843.3 3635.89 -33453.1 11833.1 25570.1 23599.5 10312.3
          -26289.9 -62756.5 -366877 -23353.4 20396.6 10221.7 -40730.9 -175882 -396906 -100704 -1912.54 22293
          -25435.1 -359695 -378713 -381460 -350861 -12958.5 23270.9 14315.2 -22028.3 -38266.9 -25385.2 -14908.9
          20129.7 29414.5 27939 22760.9 19289.1 21609.5 24778.1 30472.4 33135 32249.3 30902.5 29862.4
          30490.1 31823.1 33643.6 34690.1 27640.2 21017.4 4637.19 -360.476 -35973.2 10951.2 25028 21780
          3329 -68797.5 -75735.3 -372258 -24991.4 19809.7 8574.46 -47573.8 -401376 -426827 -252883 -6871.05
          21730.1 -28397.6 -363050 -372540 -395728 -265325 -5481.58 23597 13239.8 -23913.6 -39545.5 -32831.3
          -8510.04 20697.1 29286.4 27476.5 22251.6 18990 20474.8 24590.8 30261.9 32954.6 31960.7 30598
          29580 30059.7 31520.2 33443.4 34543.3 26465.3 17518.2 -12692 -4491.54 -37164.8 10843.6 24856.9
          19743.4 -11340 -323790 -90500.6 -371566 -25857.3 19625.1 7953.03 -43313.2 -172272 -381273 -359760
          -12905.9 21161 -24941.9 -341057 -372915 -398212 -89442.5 2450.93 23989.4 13514.9 -20991.5 -39869.4
          -34776.6 -2530.46 20962.2 29167.9 27302.2 22256.4 18703.8 19653.7 24120.3 29993.6 32790.8 31767.2
          30407.5 29330.6 29692.1 31199.7 33251.5 34411.4 25505.1 14639.4 -26099.1 -6747.57 -33650 12027.7
          25139 18106 -22002.7 -366445 -99105.3 -369916 -22999.4 20110.6 7658.79 -47059 -194425 -392214
          -162868 -11221 20906 -18615.3 -344841 -374072 -376075 -94509.4 1748.49 23896.5 14784.8 -15874.9
          -39510.3 -37565.6 -11025.9 19346.9 28856.3 27367 22676.3 18546.4 18798.9 22285.1 29449.3 32593.9
          31655.5 30319.9 29136.3 29360.3 30762 33032.3 34278.3 24957.3 13547.4 -28960.6 -5434.19 -20659.2
          14868.7 25887.2 17311.9 -24994.3 -370128 -95367.3 -341262 -13603 21431.8 7890.69 -49346.3 -396872
          -378754 -398334 -19943.5 20722.1 -3138.57 -94990.6 -372811 -390508 -324954 -8093.74 23420.6 16979.7
          -2398 -37360 -43277.2 -70323.3 14909.1 28351.3 27580.1 23502.4 18540.9 17793.9 18100.7 28620.9
          32359.1 31594.7 30302.2 28992.4 29059.7 30209.8 32788.4 34134.2 24859.6 14559 -18964.6 -641.363
          -328.726 18841.1 26961.2 17318.5 -19520.3 -340844 -76133.4 -74240.1 3580.08 23453 7301.55 -51512.4
          -372104 -402521 -370147 -16279 21443.6 3733.62 -53227.2 -383396 -388693 -364257 -9605.12 23478.2
          18456.5 3660.93 -35789.5 -48303.5 -203983 10189.2 27976.1 27736.9 24058 18563.4 17076 13373.8
          27984.7 32138.5 31540.8 30281.2 28877.9 28837.3 29796.4 32576.9 33974.7 25052.3 16781.9 -1195.2
          4877.67 10473.7 22197.2 28072 17561.2 -8274.34 -92229.4 -54703 -19636.8 13320.7 25340.3 4032.79
          -71446.1 -421218 -372423 -149354 -533.986 23012.6 4982.56 -47706.1 -387644 -375497 -100912 3665.65
          24344 18780.5 5118.39 -35098.4 -42977.6 -35217.2 16191.2 28125.4 27707.5 24155.7 18549.9 17472.4
          18769.8 28330.5 31962.9 31459.2 30206.7 28771.3 28744.2 29944.3 32445.1 33783.9 25292.8 18409.7
          7729.23 9005.82 16199.9 24599.2 29024.9 17143 -8488.04 -49118.4 -43764.3 -2020.42 18578.5 26764
          -4709.41 -235097 -405355 -371583 -57826.3 9063.45 24367.5 1704.89 -58935.2 -382276 -372685 -51595
          10534.1 24955.3 17890.6 3044.9 -35817.1 -38192.3 -3740.86 19695.3 28077.4 27449.5 23758.3 18392.8
          18008.9 22243.6 28601.9 31664.8 31336.8 30059.3 28648.8 28685.4 30146.1 32262 33511.9 25540.3
          19502.6 12420.2 11770.1 19360.2 26183.6 29738.7 16608.5 -8194.66 -33767 -37991.3 4791.27 21324.3
          27664.9 -10174.6 -189829 -394753 -392296 -41090.1 13064 25036.4 -7245.84 -102874 -389301 -375095
          -41155.5 12622.5 24767.5 15789.6 -3769.22 -38030.4 -35994.7 4274.62 19906.9 27264.6 26997.5 22864.4
          18076.5 18234.3 23634.6 28166.3 31038.1 31185.3 29849.7 28503.5 28577.8 30139.6 31880 33092.3
          25869.6 20313.7 15385.9 13587.3 21156 27155.9 30200.2 16220.9 -12180.6 -18265.5 -34375.6 7698.61
          22606 28081.5 -19578.9 -353744 -170243 -370041 -37225.2 14025.6 24909 -26633.5 -357431 -394928
          -370125 -40289.6 11147.3 23411.2 12836.9 -18940.7 -40818.1 -35914 5213.62 15895.6 25087.7 26487
          21638 17717.7 18099.9 23588.2 26534.6 29863.9 31041.1 29626.6 28351.8 28388.9 29852.6 31168.6
          32456.6 26419.8 21539.3 17160.6 14777.1 22191.7 27682.8 30428.2 17358.5 -3884.37 -14003.6 -32835
          8906.18 22932.2 28064.1 -12328.9 -131398 -154267 -383572 -37240.1 12779.5 23902.5 -37413.1 -376584
          -383264 -373837 -44277.6 5032.36 20287.5 10909.6 -27181.8 -40909.3 -37213.6 1944.47 1558.26 20457.6
          26164.8 20838.9 17562.5 17687.8 22416.9 22846.3 27887.5 30954.7 29475.2 28224 28117.2 29277.7
          29999.8 31544.1 27141.5 22787.3 18362.3 15629 22799.1 27884.9 30456 18955.7 -1714.1 -17344.1
          -32430.4 9256.17 22511.2 27655.6 -9638.04 -254869 -371748 -371469 -39444.9 8878.43 21848.4 -38027.4
          -378079 -416503 -376486 -53231.3 -11580 14143.5 10805 -28134.6 -37382.2 -39345.7 -6210.16 -64786.8
          11063.7 26186.3 20763.6 17717.8 17078.3 20206.7 15245.9 24877.3 30964.3 29449.4 28137 27771.5
          28433.7 28277.2 30327.8 28007.7 24376.7 19937.7 16460.5 23190.1 27859.4 30330 21420.4 8736.3
          -5499.04 -30500.8 9257.43 21424.3 26917.4 2535.6 -64996.1 -124545 -368979 -43307.2 357.133 18547.6
          -28664.4 -369578 -214242 -376501 -67928.8 -65202.2 2290.42 12589.4 -22939.4 -28639 -41835.2 -20940.7
          -256942 -5819.71 26584.6 21410.3 18050.9 16349.4 17237.3 1971.89 20983.6 31081.4 29559.3 28079.7
          27364 27387.6 26098.8 28858.7 28888.3 25813.2 21290.5 17324.6 23502.4 27707.7 30111.8 23706.5
          14916.2 304.649 -28409.7 9222.57 19846.3 25983.7 10697.2 -25855.9 -86897.3 -373098 -47519.7 -17070
          14138.3 -12202.9 -278546 -382545 -380323 -87988.8 -342026 -20373.1 15804.3 -11561.5 -35165.2 -44527
          -33156.5 -353075 -21745.7 27285.3 22621.7 17996.6 15603.6 14596.7 -8673.31 17359.3 31290.3 29779.1
          28023.3 26906.8 26257 23969.4 27265.4 29703.4 26984 22319.2 18265.4 23833.8 27550.2 29874.8
          25560.6 18434.7 1382.46 -26175.7 9494.01 18522 25096.1 16205.3 -9083.66 -96884.5 -380361 -48010.1
          -28922.3 10215.4 4537.04 -70484 -384472 -373334 -97521.7 -371552 -38185.6 19403.5 2098.35 -35352.4
          -45255.7 -32888.1 -321385 -24008.7 28127.1 24063.3 18157.3 14981.1 13007.9 -9536.35 14929.9 31554
          30057.6 27984.4 26397 25054.4 22125.4 25570.2 30431.2 27966.4 23272.8 19359.4 24240.8 27470.4
          29682.8 27038.1 20661 -326.022 -23186.5 10163.4 17762.8 24428.9 19844.5 -4465.41 -245055 -394494
          -45523.1 -33968.4 7615.87 12971 -35470.3 -377127 -383821 -97761.6 -373950 -45781.2 22246.9 9096.74
          -32122.6 -44995.2 -24245.7 -102352 -15726.3 28935 25275.1 18603.8 14348.9 11551.6 -4247.93 12764.3
          31829.3 30334.2 27960.2 25789.8 23544.6 19856.6 23511 31076.4 28882.3 24652.5 20716.5 24750.4
          27505.8 29577.7 28290 23048.1 8033.57 -18119.3 11180.4 17535.1 24050.9 22770 6533.57 -71841.1
          -373979 -43933.8 -35555.1 6227.37 17874.6 -20551.1 -368826 -372040 -101502 -372992 -49540.6 24372.3
          13469.8 -25590.9 -45252.5 -27659.3 -110339 -19228 29634.3 26253.5 19326.5 13401.9 7534.62 -13434
          7825.59 32082.5 30574.8 27933.1 25018.1 21285.7 15256 20580.2 31634.6 29706.4 26051.5 22443.3
          25374.5 27666.3 29580.7 29330.9 25102.8 14236.6 -7222.67 12867.1 17775 23976.5 25024.3 13700.1
          -31478.6 -296130 -36619.4 -35064.5 5840.13 21365.2 -5790.21 -265806 -377163 -113708 -375835 -52483.8
          25999.9 17079.4 -13691.7 -46036.5 -47775.8 -365579 -38754.4 30203.6 27057.4 20265.7 11940.7 -1767.81
          -60275.9 -3011.92 32290.8 30758.9 27875 24048.6 17918.9 5689.73 16381.6 32098.3 30398 27253.1
          24191.5 26027.6 27938.1 29694.6 30154.4 26680.4 18572.4 5635.3 14618.3 18394.2 24197.8 26682.7
          18434.8 -7477.41 -82767.9 -30178.1 -33003.4 6452.97 23948.5 7709.64 -70537.9 -380094 -165213 -385855
          -52004.5 27210.6 20000.7 -1380.37 -46454.4 -77954.6 -390884 -59324.3 30629.4 27658.5 21067.9 9942.32
          -20445.7 -309714 -24037.6 32438.9 30866.8 27744.1 22931 13542.6 -13245.6 11143.6 32464.9 30934.2
          28137.5 25397.9 26601.9 28298.6 29908.6 30761.8 27740.3 20935.2 10561.5 15537.7 19343.7 24690.2
          27781.4 20987.8 663.744 -54078.5 -38625.8 -29050.3 8113.34 25519.7 13402.2 -40401.5 -369376 -385588
          -395388 -46611.8 27989.2 21649.7 3322.62 -49781.6 -149940 -418017 -70578.5 30899.5 27983.5 21308.4
          7767.47 -37337.4 -372584 -40579.9 32519.1 30883.1 27505.4 21813.3 9642.71 -28185.8 6893.4 32741.1
          31323.1 28723.5 26077.7 27113.6 28729.2 30200.7 31176 28355.1 21860.5 10704.7 16421.1 20705.5
          25405 28401.4 21944.4 1067.27 -68801.9 -37872.6 -19422.9 10834.4 26222.5 14894.2 -36395.8 -372543
          -382532 -359526 -34101.9 28359.8 22122.6 3807.16 -59162.6 -397345 -383755 -71294.4 31017.6 28015.6
          20957.9 5510.92 -50960 -387953 -44896.8 32532.8 30805.6 27151.2 20792.5 7177.99 -32825.4 5104.4
          32942.2 31597.6 29119.7 26532.5 27608.5 29192.4 30539.6 31439.7 28661 22021 8039.16 17628.7
          22275.7 26228.5 28657.7 21791.9 -4175.8 -201129 -27919.5 -4916.79 14013.8 26218 13305.9 -43850
          -374968 -291149 -115471 -16686.1 28384.7 21560.1 1351.68 -58884.7 -214619 -401326 -66207.9 31006.3
          27776 20014.8 3421.08 -49530.5 -380572 -42186.4 32491.8 30647.4 26685.4 19869 6484.13 -30904.7
          5862 33089.2 31801.5 29461.1 27260.5 28105 29633.7 30893.1 31608.9 28826.2 22411 13393.5
          19139.1 23446.4 27009 28699.4 21119.2 -5153.11 -63815.9 -15455.6 36.6388 16295.4 25678.8 7787.13
          -80403.9 -377952 -130171 -94188.7 -10307.3 28167.7 20008.9 -6260.99 -77036.1 -436552 -379561 -57557.2
          30908.9 27317.5 18311.6 -603.431 -54217.5 -331442 -27451.8 32418 30438.5 26121 18898 7128.7
          -18391.2 9313.78 33203.8 31972 29774.7 27954.8 28539.3 30040.2 31246.2 31742 28966 22692.3
          16777.4 19960 24260.2 27733.8 28708.6 20219.7 -13386.3 -41680.6 -16163.9 -1047.8 18004.7 25002.8
          -3516.44 -314694 -390997 -164728 -234511 -9078.02 27894.3 17847.4 -23727.5 -130058 -456479 -388269
          -41933.9 30791.2 26775.4 15846.9 -8512.22 -48814.8 -79145.4 -5821.04 32341.3 30230.9 25527.9 17800.5
          9126.78 710.861 14332.6 33304.4 32140.5 30103.4 28530.8 28920.8 30441.2 31598.9 31891.9 29242.9
          23462.4 18845 20276.2 25241.8 28480.6 28913.1 20684.5 -10718 -32184.8 -26266 5767.42 20282.4
          25139.1 -3441.1 -315864 -432303 -386811 -76085.5 1881.52 27825.5 16744.4 -39219.2 -372080 -386717
          -303698 -18857.7 30730.3 26402.8 13481.3 -24261.3 -44497.3 -25847.6 6847.86 32294.4 30096 25081.1
          16724.4 11446.5 11219.2 18825.1 33400.7 32316.2 30448.2 29003.5 29318.1 30846.1 31948.7 32073.8
          29663.9 24687.7 20333.1 20980.7 26258.6 29232.4 29335.4 22473.2 2166.94 -19914.1 -26435.8 10798.1
          22518.7 26121 8047.96 -78050.3 -190985 -377733 -40438.6 9962.15 28059.4 17488.6 -36052.3 -375315
          -383124 -72774.3 1862.98 30777.8 26400.3 12784.2 -30722.3 -34950.1 -1619.9 14995.7 32303.7 30098.5
          25019.3 16622.3 14254 17547 22426.3 33494.2 32488.1 30762.6 29384.3 29766.5 31257.5 32290.7
          32267.6 30083.8 25630 21022.3 22293.2 27311.6 29969 29802.4 23963.1 7580.75 -24153.7 -17671.6
          15143.7 24572.2 27080 13486.6 -45459 -391704 -357852 -20044.7 15867.8 28480.8 18828 -31267
          -368510 -336035 -23484.7 12829.5 30941.8 26760.7 13726.8 -27537.9 -18168.9 10206.8 20390.3 32381.5
          30265.6 25441.3 17834.7 17651.4 21774.6 25239.8 33583.7 32648.1 31035.4 29725.2 30254.3 31666.4
          32617.3 32455.6 30439.2 26235.7 21602.3 24057 28378.9 30669.8 30220.8 24856.1 8671.27 -24982
          -860.522 19417.7 26431.4 27778.6 14855 -52721.7 -400827 -93768.9 1313.51 20594.7 29006.1 20465.7
          -22395.9 -358657 -70754.1 2361.92 19526.9 31207.5 27436.3 16255.3 -14692.6 2292.02 17724.8 24168.7
          32525.6 30588.1 26320.6 20238.8 21277.2 24879.8 27441.4 33668.2 32798 31287.7 30064.2 30727.9
          32051.4 32918.2 32635.8 30759.6 26729.9 22316.1 25587.1 29341.7 31304.2 30607.5 25512 7864.95
          -23371.2 7910.1 22667.8 28001.9 28365.9 14308.5 -132790 -370836 -42133.4 12021.5 24039.6 29606.7
          22483.3 -6052.13 -85690.9 -14414.5 14310.1 23822.8 31546.6 28332.6 19849.1 4504.45 13670.2 22625.2
          26883.9 32720.7 31022.1 27490.7 23209.9 24374.3 27229 29162.9 33747.6 32943 31547.2 30424
          31159.4 32395.4 33184.3 32812.6 31104.6 27464.3 23351.9 26823.9 30150.6 31851.2 31019.1 26607.7
          12786.4 -17174.7 12992.9 24997.3 29262.3 29171.5 19037.7 -36719.2 -333800 -23898.5 17827 26484.7
          30250.3 24676.8 6684.05 -33302.5 3826 20541.9 26674.7 31918.2 29277.1 23047.6 14434.5 20028.7
          25869.7 28852.8 32943.3 31500 28681.6 25741.2 26774 29006.5 30498.4 33819.7 33080 31804.7
          30796.6 31539.5 32689.9 33409.9 32980.1 31448.2 28245.6 24632.1 27846.8 30808.1 32304.1 31420.6
          27711 16864 -8601.42 16707.8 26700.3 30245 29954.9 22549.5 -13001.5 -318745 -11497.5 21513
          28231.6 30854.3 26490.3 13858.6 -14125.8 12361.4 24183.9 28617.9 32279.9 30127.6 25450.4 19883.3
          23836.5 28058.2 30282.1 33168.8 31961.2 29729.4 27666.5 28558.2 30339.1 31520 33882.2 33202.7
          32040.8 31151.6 31861.6 32932.1 33593.3 33129.2 31755.4 28955.4 26039.2 28693.8 31328.3 32665.5
          31773.1 28634.8 20191.9 5652.28 19942.6 27970.8 30993.9 30605.2 25011.6 4321.87 -60014 4216.46
          24201.7 29488.5 31367.2 27854.4 18557.2 3232.17 17673.7 26491.6 29962.6 32601.8 30825.4 27177
          23347.8 26261.7 29555.8 31314.5 33377 32367.7 30579.2 29077 29858.2 31325 32287.3 33932.9
          33305.3 32235.8 31432.1 32117 33122.8 33735.5 33252.9 32000.4 29464.3 26898.2 29291.8 31719.5
          32943.2 32053.8 29271.8 21935.8 10450.6 21716.4 28834.8 31545.8 31079.6 26352.4 9848.46 -26508.2
          9567.93 25773.9 30361.1 31769.4 28767 20965.4 9047.36 20419.6 27940.8 30891.1 32868.8 31358.3
          28323.4 25282.8 27786.7 30578.5 32051.2 33555.4 32702.2 31228.8 30064.5 30785.9 32041.5 32850.1
          33970.8 33387 32389.1 31633.1 32312.1 33267.3 33839.9 33350.6 32186 29782.9 27188.4 29671.5
          32005.2 33149.2 32267.3 29665.6 22358.4 8226.97 22196.6 29384.2 31943 31405.1 26878.1 7880.07
          -59671.1 7624.41 26490 30950.9 32072.1 29338.6 21756.2 7294.78 21415.7 28836.4 31529.1 33078.9
          31750.9 29050.1 26188.8 28731.7 31275.1 32568.1 33697.8 32963.5 31708.7 30738.6 31438.7 32551.6
          33250.9 33995.6 33450.8 32518.4 31805.7 32469.8 33374.3 33911.1 33426 32339.9 30060.1 27379.2
          29990.3 32226.3 33298 32437.7 29987.8 22571 1593.69 22465.1 29812 32235.1 31657.7 27196.7
          1398.21 -342908 1219.1 26951.5 31376.5 32306 29777.6 22202.8 1021.98 21998.3 29475.9 31974.6
          33237.8 32049.3 29592.5 26762 29404.4 31761.8 32923.4 33803 33159.6 32065.6 31225.6 31902.5
          32906.4 33524.7 34006.6 33497.8 32637.6 32004.3 32607.1 33449.3 33952.5 33480.9 32483.8 30453
          28305.3 30410.2 32413 33400.3 32583.6 30407.4 24398.3 13098.7 24335.4 30299.7 32458 31906.8
          28195.4 13007.5 -41086.7 12918.1 28047.4 31734.2 32494.7 30272 24180.7 12821.6 24065 30091.8
          32292.6 33350.9 32289.4 30153.4 27926.3 30042.3 32115.4 33157.6 33871.3 33298 32335.6 31626.2
          32236.8 33142.4 33698.4 34001.3 33522 32727.2 32174.7 32707.4 33490.1 33965.3 33509.9 32595.3
          30823.6 29195.5 30796.4 32549.5 33457.1 32689.3 30793 26158.8 19924.8 26120.1 30724.4 32608.2
          32106.7 29123.4 19871.2 2900.69 19819.8 29030.5 31996.2 32626.4 30701 26020.6 19761.2 25951.6
          30588.2 32497.6 33416.3 32459.1 30621.1 28946.8 30552 32348.6 33291.9 33902.5 33379 32516.2
          31915.4 32453.4 33278.8 33790.2 33976.6 33514.1 32758.3 32254 32743.4 33489.9 33949.1 33504.3
          32639.2 31023.6 29675.4 31003.3 32604.8 33464.3 32727.9 30999.6 27108.7 22813.8 27080.3 30948.6
          32667 32199.6 29619.4 22773.2 13583.7 22735.8 29550.7 32117.1 32677.3 30927.3 27003.5 22690.6
          26953.8 30844.2 32581.3 33428.2 32530.3 30864.9 29483.5 30814.2 32448.1 33334.9 33895.5 33398.2
          32589.9 32049.4 32543.1 33323.1 33810.7
        </DataArray>
        <DataArray type="Float32" Name="saturation" NumberOfComponents="1" format="ascii">
          0.302035 0.302012 0.301987 0.30198 0.301993 0.302024 0.302048 0.301995 0.301961 0.301924 0.301924 0.301949
          0.301997 0.302032 0.301937 0.301881 0.301825 0.301844 0.301895 0.301967 0.302015 0.301905 0.301836 0.301768
          0.301811 0.301894 0.301974 0.302021 0.301943 0.301892 0.301847 0.301883 0.30195 0.302011 0.302046 0.302005
          0.301978 0.301955 0.301975 0.302015 0.302052 0.302074 0.302046 0.302031 0.302019 0.30203 0.302054 0.302077
          0.302091 0.301958 0.301928 0.301892 0.301881 0.301895 0.301937 0.301972 0.301906 0.301857 0.301802 0.3018
          0.301828 0.301897 0.301948 0.301825 0.301742 0.301651 0.301678 0.301746 0.301854 0.301926 0.30178 0.301669
          0.301552 0.301618 0.30175 0.301868 0.301936 0.301834 0.301757 0.301683 0.30174 0.301838 0.301923 0.301972
          0.30192 0.30188 0.301846 0.301876 0.301931 0.30198 0.302009 0.301974 0.301953 0.301936 0.301952 0.301983
          0.302013 0.302031 0.301853 0.301804 0.301743 0.301721 0.301734 0.301805 0.301864 0.30177 0.301687 0.301587
          0.301579 0.301611 0.301733 0.301824 0.30164 0.301485 0.301302 0.301349 0.301452 0.301654 0.301786 0.301558
          0.301341 0.301086 0.301196 0.301471 0.30169 0.301809 0.301654 0.301511 0.301361 0.301468 0.301647 0.30179
          0.301868 0.301793 0.301724 0.301661 0.301714 0.301805 0.301883 0.301927 0.301877 0.301844 0.301816 0.301841
          0.30189 0.301935 0.301961 0.30171 0.301627 0.301519 0.301474 0.301477 0.301606 0.301712 0.301574 0.301422
          0.301229 0.301207 0.301231 0.301466 0.30164 0.301349 0.301045 0.300651 0.300728 0.300892 0.301308 0.30157
          0.301196 0.300747 0.300152 0.300274 0.30095 0.301399 0.30162 0.301372 0.301092 0.300772 0.30097 0.301333
          0.301592 0.301726 0.301611 0.301486 0.301361 0.301463 0.301623 0.301753 0.301824 0.30175 0.301693 0.301643
          0.301688 0.301767 0.301838 0.301879 0.301516 0.301375 0.301183 0.301092 0.301063 0.301299 0.301494 0.301293
          0.301017 0.300635 0.300583 0.300555 0.301023 0.301362 0.300902 0.300304 0.29943 0.29954 0.299797 0.300696
          0.301233 0.300612 0.299685 0.298291 0.298108 0.299944 0.300916 0.30134 0.300943 0.300396 0.29971 0.30004
          0.300815 0.301297 0.30153 0.301354 0.301126 0.300882 0.301071 0.301359 0.301576 0.301692 0.301583 0.301486
          0.301396 0.301475 0.301603 0.301716 0.30178 0.301256 0.301021 0.300681 0.300506 0.300382 0.300823 0.301178
          0.300895 0.300399 0.299648 0.299539 0.29933 0.30028 0.30094 0.300227 0.299065 0.297084 0.297237 0.297573
          0.299595 0.300699 0.299689 0.297823 0.294589 0.292601 0.297959 0.300114 0.300924 0.300298 0.299261 0.297826
          0.298266 0.299964 0.30086 0.30126 0.300995 0.300589 0.300121 0.300464 0.30098 0.301338 0.301523 0.301364
          0.301203 0.301044 0.301181 0.301388 0.301562 0.30166 0.300912 0.300529 0.299941 0.299613 0.299259 0.300084
          0.300725 0.300342 0.299475 0.298001 0.297827 0.297077 0.299032 0.300301 0.299231 0.297018 0.292366 0.292855
          0.29284 0.297602 0.299865 0.298265 0.294648 0.287326 0.277179 0.2941 0.29881 0.300316 0.299358 0.297471
          0.294587 0.294961 0.298612 0.300222 0.300891 0.300504 0.299807 0.29894 0.299554 0.300445 0.301018 0.301306
          0.301082 0.300822 0.30055 0.300785 0.301107 0.301368 0.301514 0.300465 0.299862 0.298875 0.298285 0.297405
          0.298951 0.300083 0.299595 0.298138 0.29529 0.295158 0.292873 0.296965 0.299355 0.297812 0.293731 0.281844
          0.285237 0.281825 0.294025 0.2986 0.296144 0.28945 0.273677 0.238536 0.28722 0.296822 0.29946 0.298036
          0.294776 0.289297 0.289551 0.296684 0.299334 0.3004 0.299855 0.298709 0.297172 0.298324 0.299729 0.3006
          0.301033 0.300728 0.300325 0.299875 0.300272 0.30075 0.301128 0.301339 0.299901 0.298992 0.297414 0.296372
          0.294352 0.297266 0.299206 0.29863 0.296325 0.291093 0.29133 0.284788 0.293628 0.298013 0.295902 0.288797
          0.254862 0.279127 0.253586 0.287766 0.296808 0.293102 0.281327 0.251886 0.264534 0.281636 0.29413 0.298322
          0.296266 0.290915 0.281137 0.288392 0.294464 0.29817 0.299773 0.299033 0.297238 0.294598 0.29698 0.298831
          0.300073 0.300698 0.300299 0.299702 0.29899 0.299644 0.300312 0.300839 0.301132 0.299218 0.297911 0.295576
          0.293716 0.28932 0.29487 0.298067 0.297446 0.294124 0.287264 0.285698 0.268901 0.288415 0.29622 0.293524
          0.284002 0.259453 0.270434 0.227247 0.278648 0.294571 0.288859 0.269203 0.222824 0.263781 0.266845 0.290372
          0.296907 0.294019 0.285525 0.267473 0.28484 0.291254 0.296683 0.299007 0.298052 0.295366 0.290787 0.295257
          0.29771 0.299432 0.300301 0.299804 0.298969 0.297883 0.298906 0.299794 0.3005 0.300895 0.298424 0.296627
          0.29326 0.290252 0.281044 0.291724 0.296696 0.296066 0.291365 0.281209 0.277266 0.235789 0.280469 0.294027
          0.290629 0.276956 0.244544 0.261678 0.221731 0.271252 0.292315 0.283027 0.254375 0.221058 0.259972 0.251821
          0.286174 0.295317 0.291372 0.278019 0.243833 0.279057 0.287332 0.294929 0.298123 0.296974 0.293176 0.285103
          0.293203 0.296401 0.298688 0.299853 0.299269 0.298178 0.296627 0.298103 0.299212 0.30012 0.300634 0.297548
          0.295206 0.290572 0.286402 0.272172 0.288288 0.295214 0.294584 0.288162 0.271887 0.268184 0.22378 0.272376
          0.291736 0.287475 0.266241 0.223072 0.253582 0.221131 0.267102 0.290462 0.275271 0.225238 0.21813 0.257695
          0.257979 0.282876 0.293675 0.288765 0.269137 0.225029 0.272737 0.284021 0.293006 0.297161 0.295937 0.29117
          0.279249 0.291281 0.294998 0.29787 0.299372 0.298733 0.297447 0.295536 0.29734 0.298596 0.299714 0.300359
          0.296632 0.293799 0.288118 0.282954 0.266051 0.285329 0.293804 0.293185 0.28563 0.266372 0.261867 0.221732
          0.267263 0.289796 0.285261 0.262824 0.221192 0.249249 0.221074 0.266416 0.289295 0.275043 0.238563 0.220733
          0.253993 0.24846 0.277901 0.291951 0.287345 0.270492 0.234155 0.272161 0.278936 0.290748 0.296168 0.295096
          0.290445 0.280857 0.290316 0.293479 0.297015 0.29889 0.29823 0.296898 0.295123 0.29673 0.297981 0.299306
          0.300085 0.295695 0.292438 0.286042 0.280236 0.262736 0.283191 0.292594 0.29187 0.28367 0.263705 0.258309
          0.221312 0.265049 0.288405 0.283343 0.260806 0.220983 0.247598 0.23931 0.270753 0.288853 0.273413 0.244067
          0.220716 0.248114 0.222692 0.27024 0.290291 0.285996 0.271678 0.254859 0.272155 0.270826 0.288346 0.29526
          0.294342 0.290096 0.284479 0.289717 0.291902 0.296211 0.298449 0.297764 0.296462 0.295058 0.296224 0.297403