<?xml version="1.0"?>
<VTKFile type="UnstructuredGrid" version="0.1" byte_order="LittleEndian">
  <UnstructuredGrid>
    <Piece NumberOfCells="1600" NumberOfPoints="2106">
      <CellData Scalars="p (Pa)">
        <DataArray type="Float32" Name="p (Pa)" NumberOfComponents="1" format="ascii">
          26341.6 24768.7 21966.6 18705.6 15741.9 13672.8 12295 11450.1 24088.5 21490.8 16764.5 12056
          8731.28 7975.56 7913.67 7965.77 18959.8 12918.1 198.25 -9273.77 -12901.7 -6073.29 -1377.41 1244.99
          9409.8 -8414.8 -67513.1 -95185.7 -96417.7 -39001.4 -18124 -9163.59 -6170.65 -71626.2 -880542 -963598
          -937663 -130174 -46560 -23378 -15530.2 -194425 -956897 -976245 -975568 -205450 -68240.8 -35287.7
          1869.2 -24727.1 -106434 -576024 -184250 -133750 -56795.3 -37900.2 9241.89 -1401.9 -26777.9 -80675.2
          -66520.5 -59896 -36501.3 -27552.1 25709.4 24199.2 21454.5 17913.6 14016.1 10260.9 6921.68 3994.47
          23688.9 21481.5 17512.6 12760.4 7881.09 3808.45 1171.09 -309.01 19496.5 15338.9 7616.92 -385.764
          -7725.31 -11949.4 -10815.9 -8312.33 12920.4 3876.97 -15782.5 -32443.9 -47361.1 -50481.5 -35303.5 -21213.3
          4959.52 -14968.9 -80565.5 -124005 -184118 -183982 -99539.2 -45286.9 2218.63 -23365.9 -94622 -181979
          -964667 -972433 -149791 -87663.7 7993.07 -3818.7 -31678.3 -87304.2 -169007 -803176 -126958 -115569
          11930.3 4910.94 -9738.38 -33205.9 -59552.6 -114623 -60334.4 -57814.2 24153.4 22578.2 19655.2 15419.5
          9673.14 2291.33 -7009.67 -22281.3 22040.3 19889.6 16052.9 10566.1 2762.04 -7646.69 -18210.8 -26040.8
          17974 14422.5 8393.34 14.222 -13225.7 -33528 -39561.1 -36252.5 12686.6 6460.92 -4292.23 -18769.8
          -46848.9 -116440 -97952.5 -51447 8775.78 -560.989 -20934.3 -50131 -139694 -961800 -669059 -124144
          8313.13 -1684.67 -24886.5 -67015.3 -208999 -954083 -217060 -802764 11209.4 4373.15 -10262.4 -35599.9
          -81628.3 -176447 -161192 -946189 13501.7 8506.25 -1604.88 -17573 -40424.3 -71012.2 -87493.5 -180250
          21358.7 19511.3 16195.9 10969.6 2264.8 -12615.7 -42608.3 -206655 18410.6 15672.7 11374.3 4624.81
          -8557.46 -35139.9 -84918.1 -126541 12557 7269.24 704.694 -8971.33 -34144.3 -107515 -139921 -136515
          5085.86 -6116.67 -17472.8 -30697.8 -72955.5 -203316 -182141 -99195.4 4189.38 -6489.65 -28680.4 -63924
          -187780 -976101 -259714 -122013 6789.89 -1870.03 -24223.2 -103029 -932409 -277003 -158039 -202234
          10240.4 4355.01 -9009.82 -38132.4 -118081 -118081 -193963 -981752 12441.3 8014.76 -1292.28 -17488.5
          -44675.5 -75217.5 -170855 -981144 17278.6 14914.3 11269.2 5463.08 -6603.73 -34728.7 -126103 -959010
          12418.6 7837.12 2916.69 -4320.32 -27245.6 -110374 -644970 -970020 1213.83 -12533.3 -20758.6 -28110.6
          -96971.8 -931793 -973397 -953872 -17162.5 -70671 -88856.5 -68451.2 -157740 -975664 -990769 -233963
          -9230.58 -34049.6 -103085 -146565 -265376 -983725 -996004 -205784 -300.676 -11965.9 -39125.5 -81464.4
          -207946 -271796 -219532 -148106 5556.56 -743.043 -14554.9 -38130.3 -82603.9 -124617 -163076 -272591
          8562.95 4133.72 -5356.53 -21651.1 -49568.2 -98059.5 -241149 -984859 12378.7 9379.11 5994.81 2036.74
          -6031.27 -21067.1 -49688.1 -120201 5004.21 -3796.08 -8478.25 -9073.14 -19968.2 -46736.2 -99788.7 -145156
          -16940.5 -67727.7 -75476 -41038.3 -56559.4 -128101 -168726 -166849 -79340.9 -870363 -812031 -151869
          -155291 -237641 -262302 -141579 -32794 -118690 -931542 -963041 -973779 -999110 -985602 -227602
          -12248.8 -32769.1 -100893 -175968 -967771 -984004 -337358 -173182 -3544.84 -10494.9 -29034.4 -60366.5
          -153143 -261702 -303797 -262662 925.611 -3385.06 -13974.4 -34305.3 -80469.2 -215042 -987790 -993632
          7471.83 5171.75 2463.1 -117.79 -4344.7 -11097.1 -20287 -32093.5 2745.65 -2025.64 -5863.26 -7814.06
          -13197.9 -23142.1 -35517.3 -43796.2 -9261.8 -24157.4 -30612.5 -26154 -33311.1 -51106.8 -67736.4 -63574.3
          -30736.3 -89291.4 -103613 -65710.5 -74518.9 -105063 -166160 -99564.8 -26390.2 -51896.3 -123087 -149018
          -180531 -262138 -979063 -213571 -25714.2 -31665.3 -55715.6 -93289.7 -209681 -397566 -992519 -255294
          -23337.3 -21802.4 -33504 -63355.6 -169904 -992192 -993221 -277787 -14659.7 -16373.6 -25765 -50495.8
          -145942 -972412 -987787 -300547 -2399.42 -4320.92 -6471.99 -6718.7 -7163.88 -8766.69 -10779.8 -12438.2
          -2878.33 -6095.99 -10368.2 -12746.4 -14530.6 -18121.5 -21198.1 -21183.8 -7394.31 -12881.6 -18877.6 -23613.5
          -29844.8 -40367.5 -48505 -40122.8 -18195.7 -28103.6 -36590.8 -42114 -58436.4 -92433.5 -144904 -81377.9
          -35769.6 -36682.8 -49881.2 -70154.3 -114003 -255352 -974443 -190975 -87569.1 -59266.2 -52930.7 -88616.7
          -213668 -992244 -988214 -238123 -104187 -53164.8 -50674.6 -75116.2 -127780 -300876 -985385 -218129
          -54973.4 -47635.4 -51912.9 -62094.6 -97299.9 -200018 -251977 -143756 -28655.5 -31067.7 -32830.8 -24308.6
          -17329.8 -13751.3 -11178.8 -9237.21 -18689.3 -22917.5 -33400.3 -35127.4 -27713.2 -26190.4 -22867.2 -18351.8
          -15931.8 -20304.9 -30333.8 -44352.1 -48040.5 -61664.5 -55026 -39206.9 -28290.7 -30108.6 -36770.5 -56080.8
          -91074.8 -184892 -148403 -79607.3 -91695.1 -78338.2 -57283 -94770 -209610 -981504 -292108 -130509
          -706009 -394376 -96522 -194730 -957906 -999695 -285821 -139593 -902668 -156799 -106896 -168833
          -195901 -223536 -198433 -116962 -195861 -157339 -152889 -106307 -102031 -115443 -113870 -90388.8
          -125663 -130488 -131702 -67951.5 -37885.8 -24848.1 -17319.9 -12532.6 -58787.3 -67254.9 -126261 -125090
          -61494.6 -46970.4 -35994.8 -24694.7 -34699.8 -42625.1 -70452.8 -137925 -101825 -138741 -113354 -57303.4
          -44706.9 -63556.3 -61262.6 -107356 -213918 -974254 -830768 -146146 -141068 -527032 -107991 -211903
          -343190 -988240 -1.01162e+06 -209080 -977369 -985258 -217416 -990791 -1.0418e+06 -1.00946e+06 -254590 -141701
          -990969 -309484 -310722 -988313 -263861 -195939 -126614 -107934 -988558 -1.00343e+06 -988180 -241107
          -125154 -99162.5 -87526 -90400.2 -981077 -981009 -975557 -189609 -71759 -38680.6 -24562.2 -17260.6
          -200788 -195764 -974094 -958294 -148451 -70299.9 -47390.9 -31597.6 -69219.3 -79518.7 -187510 -980320
          -271067 -184624 -142798 -71391.2 -46815.6 -57041.5 -98674 -255535 -990589 -1.0116e+06 -977967 -185720
          -70580.6 -93067.9 -162974 -979522 -991303 -995192 -390498 -261036 -158862 -166678 -244466 -989541
          -372078 -291788 -197792 -240063 -234510 -247230 -986668 -986215 -220535 -145611 -140076 -209729
          -985912 -990030 -988519 -250297 -121571 -96447.9 -110685 -188483 -994370 -284359 -227921 -137736
          -83624.4 -48019.4 -29625.7 -20947.6 -959789 -187920 -220704 -254518 -176818 -83686.2 -49875.1 -35030.8
          -138426 -89057.7 -156990 -807381 -991144 -221371 -109594 -72868.3 -57525.6 -60035.1 -98377.1 -240308
          -987964 -994699 -313466 -192803 -52237.1 -61226.3 -98231.5 -221000 -384389 -457524 -991737 -1.02789e+06
          -68062.6 -76063.3 -113499 -221747 -262759 -296169 -336970 -994287 -90485.9 -102197 -172713 -196556
          -150641 -214011 -286307 -990932 -158632 -172214 -181381 -118351 -98865.2 -121686 -210762 -999010
          -1.03085e+06 -198374 -153844 -206351 -109482 -58928.4 -34892.1 -24023.1 -968124 -165946 -140589 -238806
          -199922 -95840.4 -57378.5 -37904 -148111 -87371 -120632 -258098 -349962 -212411 -147052 -76879.4
          -76621.7 -72595.8 -110134 -264072 -995412 -998510 -965717 -209238 -67619.2 -72583.9 -97841.6 -216564
          -995209 -1.06727e+06 -1.05827e+06 -1.01987e+06 -55852.5 -61880.1 -85889.4 -180980 -986186 -991320 -433071 -425504
          -54806.3 -60668.7 -78511 -104790 -208045 -968224 -991325 -1.02688e+06 -64712.9 -69486.6 -75721.3 -74037.7
          -96992.3 -182837 -298798 -995389 -271066 -233143 -295738 -1.00014e+06 -219384 -80145.3 -40032.1 -26385.8
          -185583 -138994 -227932 -994717 -978216 -149342 -58429.6 -36561.1 -121145 -108792 -199092 -1.02126e+06
          -995017 -205689 -91781.8 -57573.9 -174680 -121729 -193845 -1.00572e+06 -994251 -301551 -178189 -100564
          -166182 -160455 -135331 -258235 -1.00375e+06 -322787 -255830 -214390 -84422 -85716.1 -93457.3 -125514
          -241412 -266221 -986657 -991777 -57898 -59516.2 -66557 -75939.1 -106554 -174428 -270545 -989605
          -51887 -54655 -62641.4 -57996.5 -67791.3 -97639.1 -187994 -986827 -1.00609e+06 -992343 -994788 -1.01502e+06
          -199940 -78500.2 -42645.5 -30786.7 -250502 -237007 -299647 -1.01413e+06 -270818 -101184 -53431.1 -38895.1
          -261898 -161531 -174586 -331576 -990850 -171680 -74219.4 -51040.4 -990961 -262930 -189305 -321571
          -1.02683e+06 -201826 -95243.2 -65007.5 -991863 -971755 -273898 -312541 -990113 -207677 -111635 -87217.2
          -187884 -182936 -190427 -168570 -189020 -122089 -157292 -153189 -95948.3 -92211.9 -103711 -88137.4
          -81595.1 -78882.1 -96973.8 -159909 -81167.9 -88250.4 -137769 -73268.9 -55894.7 -57815.1 -79548.6 -154626
          -304381 -371986 -351596 -332178 -207003 -92135.1 -54389.9 -45323.5 -385682 -287403 -212960 -245726
          -150370 -88531.5 -63846.8 -60372.4 -1.04117e+06 -264466 -180021 -184759 -211307 -111562 -82238.2 -70674.3
          -1.06568e+06 -388518 -275866 -282509 -286161 -136197 -87567.4 -64355.5 -1.02032e+06 -993478 -995684 -991887
          -988847 -172101 -79905.9 -58187.2 -324185 -330810 -1.00047e+06 -726185 -195316 -89681.1 -66501.4 -58901.8
          -214067 -165104 -255950 -170231 -83806.1 -55013.5 -49488.5 -56180.5 -200489 -229971 -926604 -146326
          -60381.7 -41557.4 -41653.8 -52936.4 -370990 -998605 -998741 -999921 -992807 -201373 -89887.2 -84977.8
          -1.00247e+06 -1.04198e+06 -376828 -278725 -226286 -129840 -112602 -159131 -999801 -404513 -284668 -199590
          -172700 -148434 -182989 -176178 -998082 -1.02127e+06 -407422 -339005 -272498 -216729 -174453 -102766
          -1.0194e+06 -995721 -995848 -997135 -315120 -138880 -89397.8 -63497.4 -997442 -1.04011e+06 -1.01847e+06 -1.01268e+06
          -187014 -85237.3 -55193.3 -44020.2 -993946 -335883 -1.01105e+06 -851247 -114037 -51320.8 -36978.1 -33962.1
          -998517 -993708 -990808 -176351 -62531 -35945.4 -28794.9 -29163.1 -297543 -1.06272e+06 -1.08622e+06 -454101
          -1.03459e+06 -992327 -176088 -191220 -353758 -1.07243e+06 -1.03237e+06 -318357 -325474 -267556 -284172 -988564
          -293695 -382238 -1.01673e+06 -338965 -288355 -336180 -1.01019e+06 -993444 -302321 -382386 -998974 -1.05924e+06
          -998732 -995125 -988905 -230447 -363811 -329075 -446144 -997151 -1.00801e+06 -294035 -173396 -95083.3
          -1.02894e+06 -289018 -262147 -266419 -193888 -155733 -78979.1 -55329.3 -264119 -161234 -176677 -135729
          -78942.8 -62884.8 -43102.1 -37278.5 -212095 -195416 -166783 -81149 -48592.7 -36395.2 -29556.3 -29373
          -218633 -1.01324e+06 -997478 -995273 -1.02226e+06 -329093 -221440 -135903 -241909 -1.03928e+06 -1.00099e+06 -352417
          -999021 -1.01188e+06 -1.04247e+06 -281814 -191525 -340482 -1.00396e+06 -311143 -415056 -998818 -1.04371e+06 -334811
          -211693 -355968 -1.03554e+06 -470222 -1.08292e+06 -998382 -1.02292e+06 -226816 -290177 -326979 -999585 -998113
          -1.05365e+06 -996788 -254679 -129909 -228199 -165351 -210015 -205348 -272533 -964754 -154824 -89209.5
          -121500 -98760 -94426.9 -83309.8 -80832.1 -123186 -66802.5 -63607.4 -91706.9 -81634.9 -69851.7 -52221.9
          -43874.5 -46821.8 -42169.3 -51774.8 -105989 -177985 -192477 -187252 -193134 -198051 -171658 -92624.9
          -140640 -229846 -215792 -153967 -250775 -989024 -971410 -178299 -228045 -337439 -284654 -192826
          -320951 -1.02637e+06 -1.00857e+06 -222958 -335286 -1.01605e+06 -464295 -358389 -1.01151e+06 -1.00531e+06 -390535 -191337
          -1.00639e+06 -996785 -997076 -996219 -1.00285e+06 -350478 -257833 -235860 -267455 -207721 -196403 -189923
          -185009 -179737 -135749 -197654 -106137 -86032.7 -76058.5 -70102.9 -67308.9 -74183.2 -87302.5 -165054
          -64387.8 -54673.7 -46450.8 -40170.6 -37986.3 -44573.6 -67114 -144265 -63621.3 -74851.1 -71660.8 -68700.1
          -70890.2 -75583.7 -66315.3 -46915.8 -135440 -154574 -98821.6 -81194.5 -97760.2 -151605 -136238 -71005
          -834410 -983134 -221114 -133872 -190795 -258347 -209761 -103884 -304083 -999782 -999902 -325752
          -994603 -1.01308e+06 -988491 -221066 -1.00302e+06 -1.02205e+06 -991510 -999574 -989439 -284984 -987905 -988486
          -990801 -230478 -170489 -172826 -153512 -110883 -211757 -986384 -157348 -82201.5 -62149.3 -58214.1
          -54420.1 -62091.8 -145603 -979044 -61593.8 -44163.7 -34681.7 -30873.3 -30956.1 -45177 -124827 -926789
          -31639 -34400.9 -33472.7 -32575.5 -32108.1 -31610.8 -26624.1 -20438.1 -53521.6 -57978.4 -48630.1 -45523
          -46565.4 -52138.3 -42430.1 -29719.4 -121188 -137731 -89995.8 -82879.9 -85849.1 -115757 -70375.7 -45943.2
          -114672 -173200 -185069 -204852 -204989 -715210 -158716 -79878.5 -212810 -179988 -209490 -970270
          -195084 -135588 -147473 -145970 -964048 -143273 -85785.2 -125897 -71768.1 -58594.8 -77570.1 -142540
          -123382 -56597.6 -39203.5 -39491.9 -31991.5 -33971.3 -56726.6 -130837 -44340.7 -29784.6 -22063.4 -19548.7
          -18428.7 -24450.1 -48152.9 -120371 -13395.2 -14908.7 -16000.9 -16499.3 -14528.8 -11870 -8322.62 -5476.28
          -21830.7 -24439.7 -26001.1 -28425.5 -24248.1 -20540.6 -14577 -9985.85 -38586.1 -44918.4 -49023.7 -61858.4
          -47385.2 -41360.8 -26422.2 -18103.8 -48712.4 -62126.9 -85777.9 -158531 -89373.7 -93968 -46019.3 -29941.3
          -67432.6 -63090 -76839.4 -140477 -70192.6 -50363.1 -42980.9 -40514.1 -109391 -51661.4 -41305.7 -49599
          -33788.6 -26820.7 -28956.3 -38113 -42197.3 -26496.7 -20084.3 -19311.1 -15240.7 -14646 -20483.3 -33070.3
          -20443.8 -14526.2 -10522.2 -8761.72 -7474.4 -9159.06 -16230.8 -29372.5 -3649.34 -5117.93 -7275.17 -8802.96
          -5797.05 -2225.46 864.406 2756.96 -8094.51 -10855 -16249.3 -24049.6 -14496 -7490.15 -2592.49 141.28
          -15891.3 -22292.7 -40974.1 -97274.4 -38712.5 -18519.3 -8813.73 -4372.2 -23144.6 -36464.9 -107198 -972800
          -104121 -34563.3 -15910.5 -9453.93 -26820 -30081.5 -48088.9 -106001 -43486.4 -22302.5 -14410.2 -11731.4
          -28289.2 -21015.3 -21925.9 -28496.6 -17488 -10887.5 -8946.73 -9819.88 -14192.1 -10325.9 -8605.85 -8402.61
          -5338.95 -3567.64 -4383.96 -6898 -6591.03 -4368.31 -2570.05 -1457.82 -148.864 5.50606 -1848.86 -4910.35
          720.387 -663.517 -2742.41 -3851.32 -1296.55 2107.79 4910.88 6491.46 -2382.12 -4790.92 -9128.54 -13009.8
          -7438.1 -1636.23 2477.4 4624.32 -7564.85 -12291.8 -23035.4 -38800.2 -20851.4 -8524.15 -1616.13 1558.43
          -12337.3 -19939.8 -43186.3 -107005 -40184.8 -15549.6 -5359.47 -1350.97 -12979.1 -16401.6 -26114.3 -41165.6
          -22671.9 -10524.2 -4416.03 -1983.92 -10322.9 -9774.82 -11781.3 -14359.9 -8594.37 -3574.46 -1018.41 -343.673
          -4270.79 -3217.72 -2830.78 -2546.33 -293.647 1625.27 2204.88 1830.47 -368.634 595.809 1512.42 2348.12
          3572.57 4329.8 4075.94 3264.83
        </DataArray>
        <DataArray type="Float32" Name="saturation" NumberOfComponents="1" format="ascii">
          0.291565 0.290241 0.287989 0.285525 0.283418 0.282016 0.281111 0.280568 0.289683 0.28762 0.284131 0.280957
          0.278873 0.278416 0.278379 0.278411 0.285711 0.281517 0.27404 0.269392 0.267778 0.270888 0.273219 0.274597
          0.279288 0.269787 0.250574 0.244924 0.244702 0.258207 0.265595 0.269442 0.270842 0.249643 0.208407 0.207342
          0.20766 0.239382 0.255954 0.263549 0.26666 0.232062 0.207423 0.207192 0.2072 0.231059 0.250407 0.259387
          0.274933 0.263046 0.242979 0.213996 0.233043 0.238891 0.253182 0.258552 0.279185 0.273206 0.262297 0.247714
          0.250805 0.252399 0.258996 0.26202 0.291028 0.289773 0.287591 0.28495 0.282245 0.279816 0.277789 0.276105
          0.289358 0.287612 0.284662 0.281414 0.27836 0.276001 0.274557 0.273773 0.286108 0.28314 0.278202 0.273733
          0.270107 0.268194 0.268696 0.269834 0.281519 0.27604 0.266554 0.260326 0.255726 0.254856 0.259382 0.264375
          0.276652 0.266895 0.247737 0.240258 0.233056 0.233069 0.24415 0.25632 0.275123 0.263553 0.245026 0.233269
          0.207329 0.207237 0.23683 0.246327 0.278427 0.271986 0.260585 0.246397 0.234622 0.209537 0.239834 0.24152
          0.280875 0.276624 0.26918 0.260071 0.252485 0.241667 0.25229 0.252922 0.289736 0.28847 0.286226 0.283196
          0.279451 0.275163 0.270443 0.263964 0.288047 0.286401 0.283633 0.280008 0.275421 0.270144 0.26556 0.262564
          0.284993 0.282517 0.278668 0.273943 0.267638 0.259964 0.258033 0.259075 0.281366 0.277519 0.271752 0.265336
          0.255871 0.241386 0.244429 0.254593 0.2789 0.273642 0.264483 0.254953 0.238102 0.207364 0.211915 0.240238
          0.27862 0.273061 0.262987 0.250689 0.230748 0.207457 0.230063 0.209543 0.280414 0.276319 0.268944 0.259286
          0.24752 0.233834 0.235489 0.207554 0.281902 0.278737 0.273102 0.265818 0.257768 0.24978 0.24636 0.233444
          0.287517 0.286119 0.283733 0.280262 0.275148 0.267902 0.257108 0.230952 0.28531 0.28337 0.280519 0.276461
          0.269721 0.259435 0.246862 0.239893 0.281281 0.277995 0.274308 0.26953 0.259761 0.242801 0.238072 0.23852
          0.276724 0.270867 0.265859 0.260919 0.24935 0.231248 0.233253 0.24421 0.276215 0.270689 0.26162 0.251417
          0.232696 0.207193 0.226854 0.240549 0.277712 0.272966 0.263233 0.24355 0.207726 0.225721 0.23585 0.231345
          0.279804 0.276308 0.269513 0.258478 0.241136 0.241136 0.232105 0.207127 0.281206 0.27844 0.273263 0.265852
          0.256498 0.248858 0.234423 0.207134 0.284495 0.28285 0.280452 0.27694 0.270635 0.259569 0.239956 0.207397
          0.281191 0.278333 0.275506 0.271739 0.262129 0.242337 0.212414 0.207265 0.27458 0.267938 0.264551 0.261821
          0.244603 0.207733 0.207225 0.20746 0.265985 0.249856 0.246099 0.250359 0.235885 0.207198 0.207022 0.228713
          0.269412 0.259792 0.24354 0.237227 0.226473 0.207104 0.206962 0.231029 0.273778 0.268186 0.258168 0.247553
          0.230839 0.226053 0.229858 0.237036 0.276994 0.273547 0.26707 0.258479 0.247323 0.240169 0.235276 0.226002
          0.278771 0.276184 0.271233 0.264206 0.255108 0.24441 0.228171 0.207091 0.281165 0.27927 0.277247 0.275024
          0.270908 0.264431 0.255075 0.240818 0.276677 0.271997 0.269757 0.269484 0.26486 0.255903 0.244107 0.237403
          0.266076 0.250525 0.248803 0.257581 0.253243 0.239672 0.234653 0.234857 0.247989 0.208547 0.2094 0.236578
          0.236171 0.228433 0.226678 0.237858 0.260209 0.241044 0.207737 0.207349 0.207221 0.206927 0.207082 0.229208
          0.268062 0.260217 0.243915 0.233884 0.207292 0.207101 0.222339 0.234176 0.272122 0.268839 0.261496 0.252283
          0.236425 0.226719 0.22412 0.226654 0.274426 0.272202 0.267317 0.259708 0.247756 0.230232 0.207057 0.206989
          0.278115 0.276773 0.275257 0.273873 0.271727 0.26857 0.264735 0.260444 0.275412 0.272887 0.270989 0.270066
          0.26765 0.263638 0.259313 0.256756 0.269397 0.263257 0.260948 0.262523 0.260036 0.254686 0.250523 0.251501
          0.260906 0.246016 0.243451 0.250994 0.249009 0.243207 0.234933 0.244146 0.262437 0.254472 0.240392 0.236924
          0.233415 0.22669 0.207158 0.230356 0.262683 0.260589 0.253461 0.245269 0.230689 0.219637 0.207002 0.227157
          0.263564 0.264148 0.259972 0.251554 0.234525 0.207006 0.206994 0.225671 0.267025 0.266309 0.262664 0.254852
          0.237305 0.207237 0.207057 0.224305 0.272697 0.271738 0.270698 0.270581 0.27037 0.269624 0.268712 0.26798
          0.272455 0.270877 0.268896 0.267845 0.26708 0.265596 0.264381 0.264386 0.270262 0.267787 0.265293 0.26346
          0.261213 0.257785 0.255404 0.25786 0.265566 0.261824 0.258967 0.257256 0.252765 0.245427 0.237435 0.247571
          0.259231 0.258938 0.255021 0.249972 0.241763 0.227153 0.207213 0.232388 0.246346 0.252556 0.254194 0.246145
          0.230348 0.207005 0.207052 0.228397 0.243354 0.254132 0.254804 0.24888 0.239718 0.224286 0.207085 0.229974
          0.253654 0.255648 0.254467 0.251858 0.244545 0.231546 0.227389 0.23758 0.261629 0.260792 0.260197 0.263201
          0.265917 0.267412 0.268534 0.269409 0.265368 0.263723 0.260007 0.259439 0.261962 0.26251 0.263742 0.265503
          0.266492 0.264728 0.261044 0.256592 0.255534 0.251963 0.253641 0.258143 0.261757 0.261122 0.25891 0.253366
          0.24568 0.232979 0.237 0.247934 0.245564 0.248197 0.253058 0.244999 0.230695 0.20713 0.224797 0.239336
          0.211197 0.219767 0.244684 0.232033 0.207411 0.20692 0.225174 0.238115 0.208109 0.235994 0.242903 0.234641
          0.231924 0.229532 0.23169 0.241306 0.231928 0.235931 0.236456 0.243 0.24372 0.24154 0.241784 0.245809
          0.240019 0.239339 0.239171 0.250473 0.258556 0.263001 0.265921 0.267938 0.252676 0.250634 0.239933 0.240101
          0.252005 0.255837 0.259158 0.263058 0.259579 0.257103 0.249905 0.238333 0.243755 0.238226 0.241865 0.253052
          0.256489 0.251505 0.252062 0.242827 0.230326 0.207215 0.209117 0.237279 0.237924 0.215286 0.242723 0.230498
          0.222052 0.207051 0.206785 0.230741 0.207178 0.207086 0.230033 0.207022 0.206455 0.206809 0.227206 0.237842
          0.20702 0.223802 0.223733 0.207051 0.226574 0.231921 0.239883 0.242732 0.207048 0.206877 0.207052 0.228174
          0.240092 0.244216 0.246354 0.245807 0.207135 0.207136 0.2072 0.232519 0.249614 0.258307 0.263107 0.265945
          0.231476 0.231937 0.207217 0.207406 0.236994 0.249939 0.255717 0.260612 0.250184 0.247952 0.232723 0.207144
          0.2261 0.233006 0.237702 0.249695 0.255881 0.253119 0.244302 0.227141 0.207024 0.206785 0.207171 0.232898
          0.249876 0.24531 0.235287 0.207153 0.207016 0.206971 0.219927 0.226764 0.235755 0.234876 0.227928 0.207036
          0.220714 0.224816 0.231749 0.228252 0.228671 0.227727 0.20707 0.207075 0.229776 0.237346 0.238052 0.230685
          0.207078 0.207031 0.207048 0.227508 0.240614 0.244697 0.242288 0.232628 0.206981 0.225263 0.229182 0.238358
          0.247119 0.25554 0.261289 0.264478 0.207388 0.232683 0.229762 0.227211 0.233795 0.247106 0.255023 0.259471
          0.238268 0.246061 0.235972 0.209471 0.207018 0.229708 0.242463 0.249369 0.252996 0.252365 0.244354 0.228234
          0.207055 0.206977 0.223583 0.232215 0.25438 0.252071 0.24438 0.229738 0.220183 0.217421 0.207011 0.206605
          0.250448 0.248677 0.241842 0.229677 0.226648 0.224558 0.222359 0.206982 0.24579 0.243691 0.234225 0.231863
          0.236726 0.230318 0.225145 0.20702 0.235781 0.234278 0.23333 0.241095 0.244268 0.240597 0.230595 0.206928
          0.206573 0.231696 0.236342 0.230979 0.242481 0.252641 0.259516 0.263307 0.207288 0.234957 0.237985 0.228346
          0.231554 0.244806 0.253033 0.25855 0.237036 0.246384 0.240753 0.226964 0.221726 0.230454 0.237166 0.248504
          0.248559 0.249429 0.242376 0.22656 0.206969 0.206933 0.207317 0.230727 0.25055 0.249431 0.244449 0.230104
          0.206971 0.206186 0.20628 0.206693 0.253426 0.251911 0.246672 0.23337 0.207075 0.207016 0.218277 0.218554
          0.253698 0.252208 0.248161 0.243253 0.230831 0.207287 0.207016 0.206616 0.251229 0.250123 0.248751 0.249113
          0.2446 0.233183 0.224405 0.206969 0.2261 0.228776 0.224583 0.206915 0.22987 0.247823 0.257888 0.262439
          0.232911 0.238193 0.229182 0.206977 0.207168 0.236884 0.252767 0.258977 0.240677 0.242593 0.23163 0.206678
          0.206973 0.231037 0.245548 0.252983 0.234018 0.240591 0.232116 0.206852 0.206982 0.224247 0.233654 0.243972
          0.234931 0.235572 0.238678 0.226954 0.206874 0.223085 0.22712 0.230287 0.24696 0.246705 0.245239 0.24004
          0.228152 0.226417 0.20707 0.207011 0.252901 0.252494 0.250796 0.248704 0.242959 0.234044 0.226134 0.207036
          0.254474 0.253738 0.251726 0.252876 0.25051 0.244485 0.232675 0.207068 0.206847 0.207004 0.206976 0.206747
          0.231553 0.248164 0.257097 0.260889 0.227493 0.228481 0.224356 0.206757 0.226116 0.243865 0.254061 0.25824
          0.226706 0.23545 0.234028 0.22263 0.207021 0.234335 0.249074 0.254704 0.20702 0.226636 0.232549 0.223149
          0.206617 0.231382 0.244913 0.25116 0.20701 0.207245 0.225918 0.223634 0.20703 0.230863 0.242136 0.246413
          0.232686 0.233174 0.232441 0.234669 0.232576 0.240538 0.235937 0.23642 0.244786 0.245468 0.243434 0.246236
          0.247527 0.248084 0.244603 0.235635 0.247614 0.246215 0.238354 0.249281 0.253415 0.252922 0.247946 0.236249
          0.224087 0.220718 0.221649 0.2226 0.230922 0.245482 0.253807 0.256309 0.220128 0.225078 0.230408 0.227836
          0.236759 0.246161 0.251436 0.252281 0.206461 0.226534 0.233467 0.232992 0.230549 0.242148 0.247397 0.249855
          0.206203 0.220009 0.225792 0.225377 0.225153 0.238562 0.246346 0.251314 0.206689 0.206991 0.206966 0.207009
          0.207044 0.23429 0.247872 0.252828 0.223011 0.222669 0.206911 0.210827 0.231979 0.245942 0.250809 0.252648
          0.230314 0.23505 0.227112 0.23449 0.247083 0.253644 0.25513 0.253341 0.231503 0.229021 0.207799 0.237257
          0.252279 0.257423 0.257394 0.254192 0.220762 0.206932 0.206931 0.206917 0.206999 0.231423 0.245903 0.24685
          0.206888 0.206453 0.220506 0.225612 0.229312 0.239429 0.241983 0.235724 0.206919 0.219359 0.225244 0.231585
          0.234227 0.236996 0.233168 0.233862 0.206938 0.206678 0.219244 0.222258 0.226008 0.23009 0.234042 0.243594
          0.206699 0.206965 0.206964 0.206949 0.223493 0.238208 0.245996 0.25152 0.206946 0.206473 0.206709 0.206773
          0.232771 0.246799 0.253597 0.25669 0.206986 0.222413 0.206792 0.208817 0.241758 0.254627 0.258844 0.259821
          0.206933 0.206988 0.207022 0.233844 0.251752 0.259174 0.26158 0.261451 0.224478 0.206234 0.205993 0.217537
          0.206532 0.207004 0.233871 0.232365 0.221547 0.206133 0.206556 0.223319 0.222944 0.226329 0.225275 0.207048
          0.224703 0.220274 0.206728 0.22226 0.225021 0.222398 0.206801 0.206991 0.224204 0.220268 0.206928 0.20627
          0.206931 0.206972 0.207044 0.228984 0.221083 0.222758 0.217812 0.206949 0.206826 0.224683 0.234153 0.244942
          0.206594 0.224981 0.226689 0.226404 0.232112 0.236119 0.248064 0.253561 0.226557 0.235484 0.23381 0.238625
          0.248071 0.251667 0.256961 0.258748 0.230481 0.231969 0.234865 0.247618 0.255379 0.25903 0.261314 0.261377
          0.229932 0.206767 0.206945 0.20697 0.206667 0.222757 0.229702 0.238602 0.228115 0.206482 0.206905 0.22161
          0.206928 0.206782 0.206447 0.22542 0.232336 0.222185 0.206871 0.22371 0.218948 0.20693 0.206434 0.222467
          0.230516 0.221444 0.206522 0.217 0.206026 0.206935 0.20666 0.22927 0.224912 0.222866 0.206921 0.206938
          0.206329 0.206953 0.2272 0.239419 0.229161 0.235022 0.23066 0.231068 0.226005 0.207328 0.236226 0.246032
          0.240625 0.244287 0.245061 0.247182 0.247682 0.240377 0.250739 0.251493 0.245562 0.247519 0.25004 0.254384
          0.256733 0.255879 0.257239 0.254504 0.243053 0.233675 0.232245 0.232748 0.232183 0.231725 0.234337 0.245392
          0.237979 0.229031 0.230169 0.236327 0.227474 0.207042 0.207249 0.233643 0.229173 0.222335 0.225245 0.232212
          0.223181 0.206622 0.206819 0.229579 0.222443 0.206736 0.217195 0.221331 0.206786 0.206856 0.219925 0.232354
          0.206844 0.206953 0.20695 0.20696 0.206884 0.221702 0.226982 0.228568 0.226336 0.230859 0.231878 0.232489
          0.232968 0.233496 0.238622 0.231762 0.243028 0.246644 0.248679 0.249984 0.250621 0.249082 0.246397 0.235055
          0.251307 0.253733 0.255985 0.257846 0.258524 0.256528 0.250667 0.237515 0.25149 0.248937 0.249635 0.250302
          0.249807 0.24878 0.250852 0.255852 0.238664 0.236255 0.244276 0.247608 0.244463 0.23661 0.238557 0.249781
          0.209063 0.207111 0.229729 0.238875 0.232406 0.226947 0.230682 0.243405 0.224104 0.206919 0.206918 0.22293
          0.206978 0.206769 0.207049 0.229732 0.206882 0.206669 0.207014 0.206921 0.207038 0.225225 0.207055 0.207049
          0.207022 0.228982 0.234462 0.234213 0.236381 0.242256 0.23051 0.207073 0.23593 0.247404 0.251845 0.252821
          0.253799 0.251859 0.237347 0.207159 0.251981 0.256648 0.259585 0.260859 0.260831 0.256352 0.240139 0.207797
          0.260598 0.259677 0.259983 0.260282 0.260439 0.260608 0.262353 0.264676 0.254037 0.252881 0.255369 0.256252
          0.255952 0.254406 0.257161 0.261257 0.240671 0.238359 0.245883 0.247268 0.246679 0.241491 0.249922 0.256131
          0.241659 0.234174 0.232962 0.231111 0.231099 0.211026 0.235772 0.247878 0.23042 0.233471 0.230705 0.207262
          0.232 0.238644 0.237114 0.237301 0.207337 0.237641 0.246692 0.239985 0.249611 0.252725 0.248358 0.237735
          0.240349 0.253233 0.258144 0.258055 0.260479 0.259818 0.2532 0.23929 0.256596 0.261234 0.264048 0.265026
          0.265472 0.263148 0.255502 0.240792 0.267565 0.26692 0.266464 0.266257 0.267081 0.268228 0.269829 0.271175
          0.264137 0.263152 0.262578 0.26171 0.263223 0.264636 0.26706 0.269068 0.258336 0.256427 0.255259 0.251916
          0.255719 0.257483 0.262426 0.265603 0.255346 0.251851 0.246693 0.235793 0.246 0.245145 0.256109 0.26118
          0.250593 0.251617 0.248513 0.238 0.249964 0.254889 0.256997 0.25774 0.242496 0.254535 0.2575 0.255099
          0.259878 0.262282 0.261523 0.258485 0.257231 0.262399 0.264815 0.26512 0.266781 0.267031 0.264658 0.260117
          0.264674 0.267082 0.268827 0.269626 0.270224 0.269444 0.266368 0.261378 0.27207 0.271349 0.270318 0.269608
          0.271021 0.272785 0.274393 0.275418 0.269935 0.268678 0.266361 0.263297 0.267095 0.270217 0.272599 0.27401