<?xml version="1.0"?>
<VTKFile type="UnstructuredGrid" version="0.1" byte_order="LittleEndian">
  <UnstructuredGrid>
    <Piece NumberOfCells="7020" NumberOfPoints="10136">
      <CellData Scalars="p (Pa)">
        <DataArray type="Float32" Name="p (Pa)" NumberOfComponents="1" format="ascii">
          -380984 -380984 -380984 -380984 -380984 -380984 -380984 -380984 -380984 -380984 -380984 -380984
          -380984 -380984 -380984 -380984 -380984 -380984 -380984 -380984 -380984 -380984 -380984 -380984
          -380984 -380984 -380984 -380984 -380984 -380984 -380984 -380984 -380984 -380984 -380984 -380984
          -380984 -380984 -380984 -381082 -381082 -381082 -381082 -381082 -381082 -381082 -381082 -381082
          -381082 -381082 -381082 -381082 -381082 -381082 -381082 -381082 -381082 -381082 -381082 -381082
          -381082 -381082 -381082 -381082 -381082 -381082 -381082 -381082 -381082 -381082 -381082 -381082
          -381082 -381082 -381082 -381082 -381082 -381082 -381180 -381180 -381180 -381180 -381180 -381180
          -381180 -381180 -381180 -381180 -381180 -381180 -381180 -381180 -381180 -381180 -381180 -381180
          -381180 -381180 -381180 -381180 -381180 -381180 -381180 -381180 -381180 -381180 -381180 -381180
          -381180 -381180 -381180 -381180 -381180 -381180 -381180 -381180 -381180 -381279 -381279 -381279
          -381279 -381279 -381279 -381279 -381279 -381279 -381279 -381279 -381279 -381279 -381279 -381279
          -381279 -381279 -381279 -381279 -381279 -381279 -381279 -381279 -381279 -381279 -381279 -381279
          -381279 -381279 -381279 -381279 -381279 -381279 -381279 -381279 -381279 -381279 -381279 -381279
          -381377 -381377 -381377 -381377 -381377 -381377 -381377 -381377 -381377 -381377 -381377 -381377
          -381377 -381377 -381377 -381377 -381377 -381377 -381377 -381377 -381377 -381377 -381377 -381377
          -381377 -381377 -381377 -381377 -381377 -381377 -381377 -381377 -381377 -381377 -381377 -381377
          -381377 -381377 -381377 -381475 -381475 -381475 -381475 -381475 -381475 -381475 -381475 -381475
          -381475 -381475 -381475 -381475 -381475 -381475 -381475 -381475 -381475 -381475 -381475 -381475
          -381475 -381475 -381475 -381475 -381475 -381475 -381475 -381475 -381475 -381475 -381475 -381475
          -381475 -381475 -381475 -381475 -381475 -381475 -381573 -381573 -381573 -381573 -381573 -381573
          -381573 -381573 -381573 -381573 -381573 -381573 -381573 -381573 -381573 -381573 -381573 -381573
          -381573 -381573 -381573 -381573 -381573 -381573 -381573 -381573 -381573 -381573 -381573 -381573
          -381573 -381573 -381573 -381573 -381573 -381573 -381573 -381573 -381573 -381671 -381671 -381671
          -381671 -381671 -381671 -381671 -381671 -381671 -381671 -381671 -381671 -381671 -381671 -381671
          -381671 -381671 -381671 -381671 -381671 -381671 -381671 -381671 -381671 -381671 -381671 -381671
          -381671 -381671 -381671 -381671 -381671 -381671 -381671 -381671 -381671 -381671 -381671 -381671
          -381769 -381769 -381769 -381769 -381769 -381769 -381769 -381769 -381769 -381769 -381769 -381769
          -381769 -381769 -381769 -381769 -381769 -381769 -381769 -381769 -381769 -381769 -381769 -381769
          -381769 -381769 -381769 -381769 -381769 -381769 -381769 -381769 -381769 -381769 -381769 -381769
          -381769 -381769 -381769 -381867 -381867 -381867 -381867 -381867 -381867 -381867 -381867 -381867
          -381867 -381867 -381867 -381867 -381867 -381867 -381867 -381867 -381867 -381867 -381867 -381867
          -381867 -381867 -381867 -381867 -381867 -381867 -381867 -381867 -381867 -381867 -381867 -381867
          -381867 -381867 -381867 -381867 -381867 -381867 -381965 -381965 -381965 -381965 -381965 -381965
          -381965 -381965 -381965 -381965 -381965 -381965 -381965 -381965 -381965 -381965 -381965 -381965
          -381965 -381965 -381965 -381965 -381965 -381965 -381965 -381965 -381965 -381965 -381965 -381965
          -381965 -381965 -381965 -381965 -381965 -381965 -381965 -381965 -381965 -382063 -382063 -382063
          -382063 -382063 -382063 -382063 -382063 -382063 -382063 -382063 -382063 -382063 -382063 -382063
          -382063 -382063 -382063 -382063 -382063 -382063 -382063 -382063 -382063 -382063 -382063 -382063
          -382063 -382063 -382063 -382063 -382063 -382063 -382063 -382063 -382063 -382063 -382063 -382063
          -382162 -382162 -382162 -382162 -382162 -382162 -382162 -382162 -382162 -382162 -382162 -382162
          -382162 -382162 -382162 -382162 -382162 -382162 -382162 -382162 -382162 -382162 -382162 -382162
          -382162 -382162 -382162 -382162 -382162 -382162 -382162 -382162 -382162 -382162 -382162 -382162
          -382162 -382162 -382162 -382260 -382260 -382260 -382260 -382260 -382260 -382260 -382260 -382260
          -382260 -382260 -382260 -382260 -382260 -382260 -382260 -382260 -382260 -382260 -382260 -382260
          -382260 -382260 -382260 -382260 -382260 -382260 -382260 -382260 -382260 -382260 -382260 -382260
          -382260 -382260 -382260 -382260 -382260 -382260 -382358 -382358 -382358 -382358 -382358 -382358
          -382358 -382358 -382358 -382358 -382358 -382358 -382358 -382358 -382358 -382358 -382358 -382358
          -382358 -382358 -382358 -382358 -382358 -382358 -382358 -382358 -382358 -382358 -382358 -382358
          -382358 -382358 -382358 -382358 -382358 -382358 -382358 -382358 -382358 -382456 -382456 -382456
          -382456 -382456 -382456 -382456 -382456 -382456 -382456 -382456 -382456 -382456 -382456 -382456
          -382456 -382456 -382456 -382456 -382456 -382456 -382456 -382456 -382456 -382456 -382456 -382456
          -382456 -382456 -382456 -382456 -382456 -382456 -382456 -382456 -382456 -382456 -382456 -382456
          -382554 -382554 -382554 -382554 -382554 -382554 -382554 -382554 -382554 -382554 -382554 -382554
          -382554 -382554 -382554 -382554 -382554 -382554 -382554 -382554 -382554 -382554 -382554 -382554
          -382554 -382554 -382554 -382554 -382554 -382554 -382554 -382554 -382554 -382554 -382554 -382554
          -382554 -382554 -382554 -382652 -382652 -382652 -382652 -382652 -382652 -382652 -382652 -382652
          -382652 -382652 -382652 -382652 -382652 -382652 -382652 -382652 -382652 -382652 -382652 -382652
          -382652 -382652 -382652 -382652 -382652 -382652 -382652 -382652 -382652 -382652 -382652 -382652
          -382652 -382652 -382652 -382652 -382652 -382652 -382750 -382750 -382750 -382750 -382750 -382750
          -382750 -382750 -382750 -382750 -382750 -382750 -382750 -382750 -382750 -382750 -382750 -382750
          -382750 -382750 -382750 -382750 -382750 -382750 -382750 -382750 -382750 -382750 -382750 -382750
          -382750 -382750 -382750 -382750 -382750 -382750 -382750 -382750 -382750 -382848 -382848 -382848
          -382848 -382848 -382848 -382848 -382848 -382848 -382848 -382848 -382848 -382848 -382848 -382848
          -382848 -382848 -382848 -382848 -382848 -382848 -382848 -382848 -382848 -382848 -382848 -382848
          -382848 -382848 -382848 -382848 -382848 -382848 -382848 -382848 -382848 -382848 -382848 -382848
          -382946 -382946 -382946 -382946 -382946 -382946 -382946 -382946 -382946 -382946 -382946 -382946
          -382946 -382946 -382946 -382946 -382946 -382946 -382946 -382946 -382946 -382946 -382946 -382946
          -382946 -382946 -382946 -382946 -382946 -382946 -382946 -382946 -382946 -382946 -382946 -382946
          -382946 -382946 -382946 -383044 -383044 -383044 -383044 -383044 -383044 -383044 -383044 -383044
          -383044 -383044 -383044 -383044 -383044 -383044 -383044 -383044 -383044 -383044 -383044 -383044
          -383044 -383044 -383044 -383044 -383044 -383044 -383044 -383044 -383044 -383044 -383044 -383044
          -383044 -383044 -383044 -383044 -383044 -383044 -383142 -383142 -383142 -383142 -383142 -383142
          -383142 -383142 -383142 -383142 -383142 -383142 -383142 -383142 -383142 -383142 -383142 -383142
          -383142 -383142 -383142 -383142 -383142 -383142 -383142 -383142 -383142 -383142 -383142 -383142
          -383142 -383142 -383142 -383142 -383142 -383142 -383142 -383142 -383142 -383241 -383241 -383241
          -383241 -383241 -383241 -383241 -383241 -383241 -383241 -383241 -383241 -383241 -383241 -383241
          -383241 -383241 -383241 -383241 -383241 -383241 -383241 -383241 -383241 -383241 -383241 -383241
          -383241 -383241 -383241 -383241 -383241 -383241 -383241 -383241 -383241 -383241 -383241 -383241
          -383339 -383339 -383339 -383339 -383339 -383339 -383339 -383339 -383339 -383339 -383339 -383339
          -383339 -383339 -383339 -383339 -383339 -383339 -383339 -383339 -383339 -383339 -383339 -383339
          -383339 -383339 -383339 -383339 -383339 -383339 -383339 -383339 -383339 -383339 -383339 -383339
          -383339 -383339 -383339 -383437 -383437 -383437 -383437 -383437 -383437 -383437 -383437 -383437
          -383437 -383437 -383437 -383437 -383437 -383437 -383437 -383437 -383437 -383437 -383437 -383437
          -383437 -383437 -383437 -383437 -383437 -383437 -383437 -383437 -383437 -383437 -383437 -383437
          -383437 -383437 -383437 -383437 -383437 -383437 -383535 -383535 -383535 -383535 -383535 -383535
          -383535 -383535 -383535 -383535 -383535 -383535 -383535 -383535 -383535 -383535 -383535 -383535
          -383535 -383535 -383535 -383535 -383535 -383535 -383535 -383535 -383535 -383535 -383535 -383535
          -383535 -383535 -383535 -383535 -383535 -383535 -383535 -383535 -383535 -383633 -383633 -383633
          -383633 -383633 -383633 -383633 -383633 -383633 -383633 -383633 -383633 -383633 -383633 -383633
          -383633 -383633 -383633 -383633 -383633 -383633 -383633 -383633 -383633 -383633 -383633 -383633
          -383633 -383633 -383633 -383633 -383633 -383633 -383633 -383633 -383633 -383633 -383633 -383633
          -383731 -383731 -383731 -383731 -383731 -383731 -383731 -383731 -383731 -383731 -383731 -383731
          -383731 -383731 -383731 -383731 -383731 -383731 -383731 -383731 -383731 -383731 -383731 -383731
          -383731 -383731 -383731 -383731 -383731 -383731 -383731 -383731 -383731 -383731 -383731 -383731
          -383731 -383731 -383731 -383829 -383829 -383829 -383829 -383829 -383829 -383829 -383829 -383829
          -383829 -383829 -383829 -383829 -383829 -383829 -383829 -383829 -383829 -383829 -383829 -383829
          -383829 -383829 -383829 -383829 -383829 -383829 -383829 -383829 -383829 -383829 -383829 -383829
          -383829 -383829 -383829 -383829 -383829 -383829 -383927 -383927 -383927 -383927 -383927 -383927
          -383927 -383927 -383927 -383927 -383927 -383927 -383927 -383927 -383927 -383927 -383927 -383927
          -383927 -383927 -383927 -383927 -383927 -383927 -383927 -383927 -383927 -383927 -383927 -383927
          -383927 -383927 -383927 -383927 -383927 -383927 -383927 -383927 -383927 -384025 -384025 -384025
          -384025 -384025 -384025 -384025 -384025 -384025 -384025 -384025 -384025 -384025 -384025 -384025
          -384025 -384025 -384025 -384025 -384025 -384025 -384025 -384025 -384025 -384025 -384025 -384025
          -384025 -384025 -384025 -384025 -384025 -384025 -384025 -384025 -384025 -384025 -384025 -384025
          -384124 -384124 -384124 -384124 -384124 -384124 -384124 -384124 -384124 -384124 -384124 -384124
          -384124 -384124 -384124 -384124 -384124 -384124 -384124 -384124 -384124 -384124 -384124 -384124
          -384124 -384124 -384124 -384124 -384124 -384124 -384124 -384124 -384124 -384124 -384124 -384124
          -384124 -384124 -384124 -384222 -384222 -384222 -384222 -384222 -384222 -384222 -384222 -384222
          -384222 -384222 -384222 -384222 -384222 -384222 -384222 -384222 -384222 -384222 -384222 -384222
          -384222 -384222 -384222 -384222 -384222 -384222 -384222 -384222 -384222 -384222 -384222 -384222
          -384222 -384222 -384222 -384222 -384222 -384222 -384320 -384320 -384320 -384320 -384320 -384320
          -384320 -384320 -384320 -384320 -384320 -384320 -384320 -384320 -384320 -384320 -384320 -384320
          -384320 -384320 -384320 -384320 -384320 -384320 -384320 -384320 -384320 -384320 -384320 -384320
          -384320 -384320 -384320 -384320 -384320 -384320 -384320 -384320 -384320 -384418 -384418 -384418
          -384418 -384418 -384418 -384418 -384418 -384418 -384418 -384418 -384418 -384418 -384418 -384418
          -384418 -384418 -384418 -384418 -384418 -384418 -384418 -384418 -384418 -384418 -384418 -384418
          -384418 -384418 -384418 -384418 -384418 -384418 -384418 -384418 -384418 -384418 -384418 -384418
          -384516 -384516 -384516 -384516 -384516 -384516 -384516 -384516 -384516 -384516 -384516 -384516
          -384516 -384516 -384516 -384516 -384516 -384516 -384516 -384516 -384516 -384516 -384516 -384516
          -384516 -384516 -384516 -384516 -384516 -384516 -384516 -384516 -384516 -384516 -384516 -384516
          -384516 -384516 -384516 -384614 -384614 -384614 -384614 -384614 -384614 -384614 -384614 -384614
          -384614 -384614 -384614 -384614 -384614 -384614 -384614 -384614 -384614 -384614 -384614 -384614
          -384614 -384614 -384614 -384614 -384614 -384614 -384614 -384614 -384614 -384614 -384614 -384614
          -384614 -384614 -384614 -384614 -384614 -384614 -384712 -384712 -384712 -384712 -384712 -384712
          -384712 -384712 -384712 -384712 -384712 -384712 -384712 -384712 -384712 -384712 -384712 -384712
          -384712 -384712 -384712 -384712 -384712 -384712 -384712 -384712 -384712 -384712 -384712 -384712
          -384712 -384712 -384712 -384712 -384712 -384712 -384712 -384712 -384712 -384810 -384810 -384810
          -384810 -384810 -384810 -384810 -384810 -384810 -384810 -384810 -384810 -384810 -384810 -384810
          -384810 -384810 -384810 -384810 -384810 -384810 -384810 -384810 -384810 -384810 -384810 -384810
          -384810 -384810 -384810 -384810 -384810 -384810 -384810 -384810 -384810 -384810 -384810 -384810
          -384908 -384908 -384908 -384908 -384908 -384908 -384908 -384908 -384908 -384908 -384908 -384908
          -384908 -384908 -384908 -384908 -384908 -384908 -384908 -384908 -384908 -384908 -384908 -384908
          -384908 -384908 -384908 -384908 -384908 -384908 -384908 -384908 -384908 -384908 -384908 -384908
          -384908 -384908 -384908 -385006 -385006 -385006 -385006 -385006 -385006 -385006 -385006 -385006
          -385006 -385006 -385006 -385006 -385006 -385006 -385006 -385006 -385006 -385006 -385006 -385006
          -385006 -385006 -385006 -385006 -385006 -385006 -385006 -385006 -385006 -385006 -385006 -385006
          -385006 -385006 -385006 -385006 -385006 -385006 -385104 -385104 -385104 -385104 -385104 -385104
          -385104 -385104 -385104 -385104 -385104 -385104 -385104 -385104 -385104 -385104 -385104 -385104
          -385104 -385104 -385104 -385104 -385104 -385104 -385104 -385104 -385104 -385104 -385104 -385104
          -385104 -385104 -385104 -385104 -385104 -385104 -385104 -385104 -385104 -385203 -385203 -385203
          -385203 -385203 -385203 -385203 -385203 -385203 -385203 -385203 -385203 -385203 -385203 -385203
          -385203 -385203 -385203 -385203 -385203 -385203 -385203 -385203 -385203 -385203 -385203 -385203
          -385203 -385203 -385203 -385203 -385203 -385203 -385203 -385203 -385203 -385203 -385203 -385203
          -385301 -385301 -385301 -385301 -385301 -385301 -385301 -385301 -385301 -385301 -385301 -385301
          -385301 -385301 -385301 -385301 -385301 -385301 -385301 -385301 -385301 -385301 -385301 -385301
          -385301 -385301 -385301 -385301 -385301 -385301 -385301 -385301 -385301 -385301 -385301 -385301
          -385301 -385301 -385301 -385399 -385399 -385399 -385399 -385399 -385399 -385399 -385399 -385399
          -385399 -385399 -385399 -385399 -385399 -385399 -385399 -385399 -385399 -385399 -385399 -385399
          -385399 -385399 -385399 -385399 -385399 -385399 -385399 -385399 -385399 -385399 -385399 -385399
          -385399 -385399 -385399 -385399 -385399 -385399 -385497 -385497 -385497 -385497 -385497 -385497
          -385497 -385497 -385497 -385497 -385497 -385497 -385497 -385497 -385497 -385497 -385497 -385497
          -385497 -385497 -385497 -385497 -385497 -385497 -385497 -385497 -385497 -385497 -385497 -385497
          -385497 -385497 -385497 -385497 -385497 -385497 -385497 -385497 -385497 -385595 -385595 -385595
          -385595 -385595 -385595 -385595 -385595 -385595 -385595 -385595 -385595 -385595 -385595 -385595
          -385595 -385595 -385595 -385595 -385595 -385595 -385595 -385595 -385595 -385595 -385595 -385595
          -385595 -385595 -385595 -385595 -385595 -385595 -385595 -385595 -385595 -385595 -385595 -385595
          -385693 -385693 -385693 -385693 -385693 -385693 -385693 -385693 -385693 -385693 -385693 -385693
          -385693 -385693 -385693 -385693 -385693 -385693 -385693 -385693 -385693 -385693 -385693 -385693
          -385693 -385693 -385693 -385693 -385693 -385693 -385693 -385693 -385693 -385693 -385693 -385693
          -385693 -385693 -385693 -385791 -385791 -385791 -385791 -385791 -385791 -385791 -385791 -385791
          -385791 -385791 -385791 -385791 -385791 -385791 -385791 -385791 -385791 -385791 -385791 -385791
          -385791 -385791 -385791 -385791 -385791 -385791 -385791 -385791 -385791 -385791 -385791 -385791
          -385791 -385791 -385791 -385791 -385791 -385791 -385889 -385889 -385889 -385889 -385889 -385889
          -385889 -385889 -385889 -385889 -385889 -385889 -385889 -385889 -385889 -385889 -385889 -385889
          -385889 -385889 -385889 -385889 -385889 -385889 -385889 -385889 -385889 -385889 -385889 -385889
          -385889 -385889 -385889 -385889 -385889 -385889 -385889 -385889 -385889 -385987 -385987 -385987
          -385987 -385987 -385987 -385987 -385987 -385987 -385987 -385987 -385987 -385987 -385987 -385987
          -385987 -385987 -385987 -385987 -385987 -385987 -385987 -385987 -385987 -385987 -385987 -385987
          -385987 -385987 -385987 -385987 -385987 -385987 -385987 -385987 -385987 -385987 -385987 -385987
          -386086 -386086 -386086 -386086 -386086 -386086 -386086 -386086 -386086 -386086 -386086 -386086
          -386086 -386086 -386086 -386086 -386086 -386086 -386086 -386086 -386086 -386086 -386086 -386086
          -386086 -386086 -386086 -386086 -386086 -386086 -386086 -386086 -386086 -386086 -386086 -386086
          -386086 -386086 -386086 -386184 -386184 -386184 -386184 -386184 -386184 -386184 -386184 -386184
          -386184 -386184 -386184 -386184 -386184 -386184 -386184 -386184 -386184 -386184 -386184 -386184
          -386184 -386184 -386184 -386184 -386184 -386184 -386184 -386184 -386184 -386184 -386184 -386184
          -386184 -386184 -386184 -386184 -386184 -386184 -386282 -386282 -386282 -386282 -386282 -386282
          -386282 -386282 -386282 -386282 -386282 -386282 -386282 -386282 -386282 -386282 -386282 -386282
          -386282 -386282 -386282 -386282 -386282 -386282 -386282 -386282 -386282 -386282 -386282 -386282
          -386282 -386282 -386282 -386282 -386282 -386282 -386282 -386282 -386282 -386380 -386380 -386380
          -386380 -386380 -386380 -386380 -386380 -386380 -386380 -386380 -386380 -386380 -386380 -386380
          -386380 -386380 -386380 -386380 -386380 -386380 -386380 -386380 -386380 -386380 -386380 -386380
          -386380 -386380 -386380 -386380 -386380 -386380 -386380 -386380 -386380 -386380 -386380 -386380
          -386478 -386478 -386478 -386478 -386478 -386478 -386478 -386478 -386478 -386478 -386478 -386478
          -386478 -386478 -386478 -386478 -386478 -386478 -386478 -386478 -386478 -386478 -386478 -386478
          -386478 -386478 -386478 -386478 -386478 -386478 -386478 -386478 -386478 -386478 -386478 -386478
          -386478 -386478 -386478 -386576 -386576 -386576 -386576 -386576 -386576 -386576 -386576 -386576
          -386576 -386576 -386576 -386576 -386576 -386576 -386576 -386576 -386576 -386576 -386576 -386576
          -386576 -386576 -386576 -386576 -386576 -386576 -386576 -386576 -386576 -386576 -386576 -386576
          -386576 -386576 -386576 -386576 -386576 -386576 -386674 -386674 -386674 -386674 -386674 -386674
          -386674 -386674 -386674 -386674 -386674 -386674 -386674 -386674 -386674 -386674 -386674 -386674
          -386674 -386674 -386674 -386674 -386674 -386674 -386674 -386674 -386674 -386674 -386674 -386674
          -386674 -386674 -386674 -386674 -386674 -386674 -386674 -386674 -386674 -386772 -386772 -386772
          -386772 -386772 -386772 -386772 -386772 -386772 -386772 -386772 -386772 -386772 -386772 -386772
          -386772 -386772 -386772 -386772 -386772 -386772 -386772 -386772 -386772 -386772 -386772 -386772
          -386772 -386772 -386772 -386772 -386772 -386772 -386772 -386772 -386772 -386772 -386772 -386772
          -386870 -386870 -386870 -386870 -386870 -386870 -386870 -386870 -386870 -386870 -386870 -386870
          -386870 -386870 -386870 -386870 -386870 -386870 -386870 -386870 -386870 -386870 -386870 -386870
          -386870 -386870 -386870 -386870 -386870 -386870 -386870 -386870 -386870 -386870 -386870 -386870
          -386870 -386870 -386870 -386968 -386968 -386968 -386968 -386968 -386968 -386968 -386968 -386968
          -386968 -386968 -386968 -386968 -386968 -386968 -386968 -386968 -386968 -386968 -386968 -386968
          -386968 -386968 -386968 -386968 -386968 -386968 -386968 -386968 -386968 -386968 -386968 -386968
          -386968 -386968 -386968 -386968 -386968 -386968 -387066 -387066 -387066 -387066 -387066 -387066
          -387066 -387066 -387066 -387066 -387066 -387066 -387066 -387066 -387066 -387066 -387066 -387066
          -387066 -387066 -387066 -387066 -387066 -387066 -387066 -387066 -387066 -387066 -387066 -387066
          -387066 -387066 -387066 -387066 -387066 -387066 -387066 -387066 -387066 -387165 -387165 -387165
          -387165 -387165 -387165 -387165 -387165 -387165 -387165 -387165 -387165 -387165 -387165 -387165
          -387165 -387165 -387165 -387165 -387165 -387165 -387165 -387165 -387165 -387165 -387165 -387165
          -387165 -387165 -387165 -387165 -387165 -387165 -387165 -387165 -387165 -387165 -387165 -387165
          -387263 -387263 -387263 -387263 -387263 -387263 -387263 -387263 -387263 -387263 -387263 -387263
          -387263 -387263 -387263 -387263 -387263 -387263 -387263 -387263 -387263 -387263 -387263 -387263
          -387263 -387263 -387263 -387263 -387263 -387263 -387263 -387263 -387263 -387263 -387263 -387263
          -387263 -387263 -387263 -387361 -387361 -387361 -387361 -387361 -387361 -387361 -387361 -387361
          -387361 -387361 -387361 -387361 -387361 -387361 -387361 -387361 -387361 -387361 -387361 -387361
          -387361 -387361 -387361 -387361 -387361 -387361 -387361 -387361 -387361 -387361 -387361 -387361
          -387361 -387361 -387361 -387361 -387361 -387361 -387459 -387459 -387459 -387459 -387459 -387459
          -387459 -387459 -387459 -387459 -387459 -387459 -387459 -387459 -387459 -387459 -387459 -387459
          -387459 -387459 -387459 -387459 -387459 -387459 -387459 -387459 -387459 -387459 -387459 -387459
          -387459 -387459 -387459 -387459 -387459 -387459 -387459 -387459 -387459 -387557 -387557 -387557
          -387557 -387557 -387557 -387557 -387557 -387557 -387557 -387557 -387557 -387557 -387557 -387557
          -387557 -387557 -387557 -387557 -387557 -387557 -387557 -387557 -387557 -387557 -387557 -387557
          -387557 -387557 -387557 -387557 -387557 -387557 -387557 -387557 -387557 -387557 -387557 -387557
          -387655 -387655 -387655 -387655 -387655 -387655 -387655 -387655 -387655 -387655 -387655 -387655
          -387655 -387655 -387655 -387655 -387655 -387655 -387655 -387655 -387655 -387655 -387655 -387655
          -387655 -387655 -387655 -387655 -387655 -387655 -387655 -387655 -387655 -387655 -387655 -387655
          -387655 -387655 -387655 -387753 -387753 -387753 -387753 -387753 -387753 -387753 -387753 -387753
          -387753 -387753 -387753 -387753 -387753 -387753 -387753 -387753 -387753 -387753 -387753 -387753
          -387753 -387753 -387753 -387753 -387753 -387753 -387753 -387753 -387753 -387753 -387753 -387753
          -387753 -387753 -387753 -387753 -387753 -387753 -387851 -387851 -387851 -387851 -387851 -387851
          -387851 -387851 -387851 -387851 -387851 -387851 -387851 -387851 -387851 -387851 -387851 -387851
          -387851 -387851 -387851 -387851 -387851 -387851 -387851 -387851 -387851 -387851 -387851 -387851
          -387851 -387851 -387851 -387851 -387851 -387851 -387851 -387851 -387851 -387949 -387949 -387949
          -387949 -387949 -387949 -387949 -387949 -387949 -387949 -387949 -387949 -387949 -387949 -387949
          -387949 -387949 -387949 -387949 -387949 -387949 -387949 -387949 -387949 -387949 -387949 -387949
          -387949 -387949 -387949 -387949 -387949 -387949 -387949 -387949 -387949 -387949 -387949 -387949
          -388048 -388048 -388048 -388048 -388048 -388048 -388048 -388048 -388048 -388048 -388048 -388048
          -388048 -388048 -388048 -388048 -388048 -388048 -388048 -388048 -388048 -388048 -388048 -388048
          -388048 -388048 -388048 -388048 -388048 -388048 -388048 -388048 -388048 -388048 -388048 -388048
          -388048 -388048 -388048 -388146 -388146 -388146 -388146 -388146 -388146 -388146 -388146 -388146
          -388146 -388146 -388146 -388146 -388146 -388146 -388146 -388146 -388146 -388146 -388146 -388146
          -388146 -388146 -388146 -388146 -388146 -388146 -388146 -388146 -388146 -388146 -388146 -388146
          -388146 -388146 -388146 -388146 -388146 -388146 -388244 -388244 -388244 -388244 -388244 -388244
          -388244 -388244 -388244 -388244 -388244 -388244 -388244 -388244 -388244 -388244 -388244 -388244
          -388244 -388244 -388244 -388244 -388244 -388244 -388244 -388244 -388244 -388244 -388244 -388244
          -388244 -388244 -388244 -388244 -388244 -388244 -388244 -388244 -388244 -388342 -388342 -388342
          -388342 -388342 -388342 -388342 -388342 -388342 -388342 -388342 -388342 -388342 -388342 -388342
          -388342 -388342 -388342 -388342 -388342 -388342 -388342 -388342 -388342 -388342 -388342 -388342
          -388342 -388342 -388342 -388342 -388342 -388342 -388342 -388342 -388342 -388342 -388342 -388342
          -388440 -388440 -388440 -388440 -388440 -388440 -388440 -388440 -388440 -388440 -388440 -388440
          -388440 -388440 -388440 -388440 -388440 -388440 -388440 -388440 -388440 -388440 -388440 -388440
          -388440 -388440 -388440 -388440 -388440 -388440 -388440 -388440 -388440 -388440 -388440 -388440
          -388440 -388440 -388440 -388538 -388538 -388538 -388538 -388538 -388538 -388538 -388538 -388538
          -388538 -388538 -388538 -388538 -388538 -388538 -388538 -388538 -388538 -388538 -388538 -388538
          -388538 -388538 -388538 -388538 -388538 -388538 -388538 -388538 -388538 -388538 -388538 -388538
          -388538 -388538 -388538 -388538 -388538 -388538 -388636 -388636 -388636 -388636 -388636 -388636
          -388636 -388636 -388636 -388636 -388636 -388636 -388636 -388636 -388636 -388636 -388636 -388636
          -388636 -388636 -388636 -388636 -388636 -388636 -388636 -388636 -388636 -388636 -388636 -388636
          -388636 -388636 -388636 -388636 -388636 -388636 -388636 -388636 -388636 -388734 -388734 -388734
          -388734 -388734 -388734 -388734 -388734 -388734 -388734 -388734 -388734 -388734 -388734 -388734
          -388734 -388734 -388734 -388734 -388734 -388734 -388734 -388734 -388734 -388734 -388734 -388734
          -388734 -388734 -388734 -388734 -388734 -388734 -388734 -388734 -388734 -388734 -388734 -388734
          -388832 -388832 -388832 -388832 -388832 -388832 -388832 -388832 -388832 -388832 -388832 -388832
          -388832 -388832 -388832 -388832 -388832 -388832 -388832 -388832 -388832 -388832 -388832 -388832
          -388832 -388832 -388832 -388832 -388832 -388832 -388832 -388832 -388832 -388832 -388832 -388832
          -388832 -388832 -388832 -388930 -388930 -388930 -388930 -388930 -388930 -388930 -388930 -388930
          -388930 -388930 -388930 -388930 -388930 -388930 -388930 -388930 -388930 -388930 -388930 -388930
          -388930 -388930 -388930 -388930 -388930 -388930 -388930 -388930 -388930 -388930 -388930 -388930
          -388930 -388930 -388930 -388930 -388930 -388930 -389028 -389028 -389028 -389028 -389028 -389028
          -389028 -389028 -389028 -389028 -389028 -389028 -389028 -389028 -389028 -389028 -389028 -389028
          -389028 -389028 -389028 -389028 -389028 -389028 -389028 -389028 -389028 -389028 -389028 -389028
          -389028 -389028 -389028 -389028 -389028 -389028 -389028 -389028 -389028 -389127 -389127 -389127
          -389127 -389127 -389127 -389127 -389127 -389127 -389127 -389127 -389127 -389127 -389127 -389127
          -389127 -389127 -389127 -389127 -389127 -389127 -389127 -389127 -389127 -389127 -389127 -389127
          -389127 -389127 -389127 -389127 -389127 -389127 -389127 -389127 -389127 -389127 -389127 -389127
          -389225 -389225 -389225 -389225 -389225 -389225 -389225 -389225 -389225 -389225 -389225 -389225
          -389225 -389225 -389225 -389225 -389225 -389225 -389225 -389225 -389225 -389225 -389225 -389225
          -389225 -389225 -389225 -389225 -389225 -389225 -389225 -389225 -389225 -389225 -389225 -389225
          -389225 -389225 -389225 -389323 -389323 -389323 -389323 -389323 -389323 -389323 -389323 -389323
          -389323 -389323 -389323 -389323 -389323 -389323 -389323 -389323 -389323 -389323 -389323 -389323
          -389323 -389323 -389323 -389323 -389323 -389323 -389323 -389323 -389323 -389323 -389323 -389323
          -389323 -389323 -389323 -389323 -389323 -389323 -389421 -389421 -389421 -389421 -389421 -389421