<?xml version="1.0"?>
<VTKFile type="UnstructuredGrid" version="0.1" byte_order="LittleEndian">
  <UnstructuredGrid>
    <Piece NumberOfCells="735" NumberOfPoints="1024">
      <CellData Scalars="p (Pa)">
        <DataArray type="Float32" Name="p (Pa)" NumberOfComponents="1" format="ascii">
          36686.2 36666.9 36619.6 36565.4 36586.4 36640.9 36672.3 36677.1 36638.1 36539.1 36417.6 36457.8
          36577 36645.5 36667.7 36607.5 36449.9 36242.9 36299 36495.5 36609.7 36675.3 36634.3 36532.5
          36409.4 36442.1 36545.1 36620.9 36684 36662.2 36611.6 36557.8 36581.1 36624.4 36657.8 36690.7
          36681.7 36662.3 36644.2 36655.5 36671.1 36682.4 36693.9 36690.4 36683.5 36677.9 36682.4 36687.9
          36691.6 36566.2 36500.9 36335.6 36134.2 36209.8 36406.9 36517.8 36535.1 36398.9 36036.9 35551.4
          35700.9 36163.7 36419.1 36501.5 36284.7 35680.2 34773.4 34983.1 35820.2 36275.5 36526.9 36380.6
          36004.1 35512.2 35627.1 36002.8 36303.6 36553.7 36470.4 36272.9 36055.8 36160.6 36317.2 36448.3
          36577.5 36542 36463.9 36390.7 36442.8 36501.4 36545.4 36589.5 36576 36548.2 36525.8 36546.2
          36567.2 36581.2 36397.8 36178.8 35598.3 34827.5 35119.3 35840.7 36229.7 36293 35819.7 34468.1
          32363.3 33000.8 34906.6 35869 36174.4 35390.4 32948.2 28175.9 29144.4 33373.1 35284.9 36254.8
          35731 34305.2 32183.3 32637.7 34035.5 35312.7 36331.4 36002.5 35195.4 34252.4 34796.2 35368
          35902.9 36419.1 36274.3 35949.3 35639.2 35895.3 36119.9 36295.2 36466.6 36411.7 36297.3 36205.4
          36299.8 36382 36436.6 36135.4 35536.7 33828.7 31183.8 32286.4 34541.6 35657.9 35850.2 34495.2
          30059.9 20573.5 23884.5 31485.5 34580.3 35509.6 33126.1 23710 -10223 -3806.64 24815.4 32529.1
          35699 34119.5 29311 19857.8 22039 26570 32152.8 35844.8 34691 31596.8 27348.3 30541
          32355.5 34360.1 36126.3 35610.6 34406.6 33198.3 34385.6 35127.8 35731.6 36289.4 36097.7 35691.6
          35368.1 35749.8 36022.3 36202.3 35762.8 34494.9 30436.7 21992 26477.4 32234.2 34699.2 35171.9
          32131.7 19348.4 -34309.2 -6642.64 24218.8 32259.5 34435.2 28630.4 -8306.07 -360364 -296165 -5726.97
          26253 34679.1 30732.6 15822.4 -35256.8 -17508.2 -11260.4 22269.7 34736.5 31033.3 18183.6 -8577.72
          17918.2 22997.6 30469.1 35522.6 33946.9 29890.9 25227.3 30687.7 32791.3 34558.8 35993.6 35441.1
          34239.4 33296.3 34604.9 35336.4 35811.8 35344 33378 26434 4639.47 20835.5 29588.3 33422.4
          34456.2 29641.2 2630.78 -238898 -31583.9 18024.4 29934.5 33457.5 25213.3 -27523.4 -397896 -409259
          -37377.7 18615.4 33236.1 25229.7 -16923 -369020 -93527.7 -326682 -8933.37 32557.8 20929.5 -55447.5
          -322864 -17500.7 -6300.61 23328.7 34465.9 30458.8 17579.2 -1573.73 23963.8 28827.7 32938.3 35551.6
          34317.5 31506.1 29513.5 32981.7 34435.1 35348.3 34800.2 32415.7 26290.1 15653.2 17783.9 24159
          30839.9 33595.7 28041.7 8697.04 -63939.5 -47008.1 13746.8 28041.1 32532.2 22752.1 -31917.5 -400956
          -412710 -43193.5 16476.5 31869.6 19383.6 -51167.6 -416667 -443569 -328078 -9582.96 30041.7 641.184
          -330406 -363326 -34418.6 -7168.3 23164.2 33490.6 26456.1 -3017.08 -6486.7 22424 28534.9 32810.8
          35189.9 33367.5 29127.1 28640.2 32611.2 34276.3 35237.7 33575.6 29131.2 19746.4 15692.6 8948.54
          -6298.82 22371.5 31227.4 18880 -19988.2 -42533.8 -46702.2 6528.18 24409.4 31098.8 17241.5 -55747.5
          -418514 -393482 -33555.3 16203.1 32049.2 21209.1 -38782 -409448 -91465.2 -21923.9 17992 32364.6
          22164.4 -26937.3 -276209 -9028.02 18973.3 29021.9 34340.2 30715 20112.4 3251.29 25487.1 31435.1
          33936.7 35390.7 34260 31792.8 30130.8 33215.3 34736.1 35421 31882.9 22075.6 -5837.16 4960.02
          -42543.7 -291677 -8044.32 26268.7 -32083 -320867 -69760.2 -304902 -29066.3 12660.4 28407.8 -5423.08
          -352029 -418641 -396422 -42394 -8234.19 32248 22314.7 -28431.9 -355356 -48504.2 7950 19996.2
          33948.6 29643.5 15959.5 -19073.6 14986.8 26817.7 30939.7 35100.3 33551.5 29752.5 24963.7 30322.2
          33280.4 34537.5 35613.6 35100.8 34019.4 33156.5 34326.8 35156.3 35534.4 33302.3 28531.8 16651.9
          -11528.8 -343518 -394057 -21970.9 30872.5 17864.8 -24534.4 -71402.8 -460604 -67770.4 -13069.9 30770.2
          15948.5 -55018.4 -429021 -406540 -82454.1 -254401 33290.7 27539 8305.84 -44717.9 -33618.1 4621.35
          1392.93 34756.2 32669.8 27196.4 18489.5 21906.6 27835.2 29621.7 35441.8 34769.6 33221.1 31464.4
          32447.4 33813.2 34474 35687.5 35476.1 35027.7 34622.7 34914.1 35293.5 35498.3 34262.5 31458.8
          23801.9 7340.6 -58405.2 -43447.7 9995.2 32708 25074.2 -5060.47 -60508.3 -422482 -95752.9 -11495.8
          30850.9 8326.31 -234128 -440270 -400676 -398372 -194567 33466.1 27343 1506.63 -29118.7 -36468.5
          -17992.9 4690.19 34950.1 33322.4 28938.5 23851.5 22985.6 26459.5 29759.4 35496.8 35082.9 34106.6
          33032.7 32971.7 33750.5 34442.7 35652.5 35542.7 35297.6 35039.9 35051.5 35257.5 35427.8 34697.9
          32742.6 26714.8 10401 -44463.4 -84164.8 11464.6 33798.2 29385.2 12906.8 -52993.1 -438033 -394668
          -21966.9 32788.7 24076.8 -24264.5 -384937 -399736 -77004.1 -7031.01 34086.4 30347.2 17198.2 -21819.3
          -30467.4 8473.62 22168 35060 33876.1 30610.7 25098.4 23853.4 28847.7 31844.4 35458.2 35144.7
          34358.4 33286.5 33094.2 34007 34691.6 35573.2 35491.3 35294.5 35047.5 35016.7 35226.9 35393.4
          34728.8 32820.5 26305 8087 -31666.7 3779.12 23885.4 34111 30434.9 15176.7 -52468.5 -417922
          -51783 13897.4 33731.3 29196.9 11161.2 -65385.8 -392265 -34382.2 16553 34350 31686.2 23120.1
          2200 -24938.6 15281.4 27428.7 35015 33954.6 31019.4 26048.1 24164 29870.6 32864.1 35356.9
          35032.3 34202.6 33051.5 32950.5 34079.5 34806.6 35470.3 35376.7 35147.2 34860.7 34877.6 35150.7
          35334.8 34491.9 31966 21730.1 -17846.5 -27248.5 16152.8 28487.5 33761.4 28445.9 -6921.75 -358308
          -393001 -21139.8 22269.3 33518.1 28454.7 6042.35 -95342.9 -392526 -29104.6 20967 33924.1 30197.1
          15912 -33249.7 -30895.7 15940.2 28686 34697.8 33077.2 28151.9 18674.6 21958 29676.6 33058.1
          35172.1 34652.5 33272.2 31348.1 32210.5 33874.8 34749.5 35342.9 35188 34803.8 34347.5 34578
          35003.3 35237.4 34435.1 32309 25379.6 10136.8 9068.72 24089.8 30813.9 33657.1 29193.8 10406.2
          -57987.5 -60315 8531.9 26718.6 32852.5 25225.3 -23475.6 -392679 -397542 -24035 22568.4 33095.6
          26238.7 -16853.3 -375997 -49686.5 14916.8 28857.3 34239.9 31525.7 21364.1 -10805.2 17086 28946.4
          32937.1 34952.8 34131.7 31761.6 27864.4 31029.1 33541 34617.3 35207.7 34970.6 34361.6 33609.2
          34197.4 34826.8 35123.1
        </DataArray>
        <DataArray type="Float32" Name="saturation" NumberOfComponents="1" format="ascii">
          0.301544 0.301523 0.301471 0.301412 0.301435 0.301494 0.301529 0.301534 0.301491 0.301384 0.301252 0.301296
          0.301425 0.301499 0.301524 0.301458 0.301287 0.301064 0.301124 0.301337 0.30146 0.301532 0.301487 0.301377
          0.301243 0.301279 0.30139 0.301473 0.301541 0.301518 0.301463 0.301404 0.301429 0.301476 0.301513 0.301549
          0.301539 0.301518 0.301498 0.30151 0.301527 0.30154 0.301552 0.301548 0.301541 0.301535 0.30154 0.301546
          0.30155 0.301413 0.301342 0.301164 0.300947 0.301028 0.301241 0.301361 0.30138 0.301232 0.300843 0.300326
          0.300484 0.300979 0.301254 0.301343 0.301109 0.300462 0.29951 0.299729 0.300611 0.301099 0.301371 0.301212
          0.300807 0.300284 0.300406 0.300806 0.301129 0.3014 0.301309 0.301096 0.300863 0.300975 0.301144 0.301286
          0.301426 0.301387 0.301302 0.301223 0.30128 0.301343 0.301391 0.301439 0.301424 0.301394 0.301369 0.301392
          0.301414 0.30143 0.301231 0.300995 0.300375 0.299566 0.299871 0.300633 0.30105 0.301118 0.300611 0.299194
          0.297079 0.297709 0.299649 0.300663 0.30099 0.300156 0.297656 0.293167 0.294039 0.298081 0.300045 0.301077
          0.300516 0.299027 0.296903 0.297349 0.298751 0.300074 0.301159 0.300806 0.299951 0.298973 0.299534 0.300132
          0.300699 0.301254 0.301098 0.300749 0.300419 0.300691 0.300932 0.30112 0.301305 0.301246 0.301122 0.301023
          0.301125 0.301214 0.301273 0.300948 0.30031 0.298541 0.295939 0.297004 0.29927 0.300439 0.300643 0.299222
          0.294881 0.286917 0.289517 0.296228 0.29931 0.300282 0.297833 0.289375 0.268961 0.271992 0.29028 0.297242
          0.300482 0.298837 0.294191 0.286377 0.288046 0.291761 0.296873 0.300637 0.299425 0.296335 0.292436 0.29533
          0.297071 0.299083 0.300939 0.300388 0.299131 0.297906 0.29911 0.29988 0.300517 0.301114 0.300908 0.300474
          0.300132 0.300536 0.300827 0.30102 0.30055 0.299222 0.295233 0.288009 0.291681 0.296953 0.299433 0.299926
          0.296853 0.285998 0.259707 0.270617 0.289789 0.296978 0.299161 0.293574 0.269837 0.22124 0.224558 0.271054
          0.291489 0.299412 0.295511 0.283474 0.259397 0.265844 0.268498 0.288227 0.299472 0.295796 0.285145 0.269711
          0.284953 0.288803 0.295263 0.300295 0.298661 0.294724 0.290623 0.295469 0.297501 0.299288 0.300796 0.300209
          0.298959 0.298004 0.299336 0.300099 0.300602 0.300107 0.298086 0.291644 0.276469 0.287116 0.294445 0.29813
          0.299182 0.294494 0.275349 0.228339 0.260617 0.28503 0.294765 0.298166 0.290611 0.26203 0.219624 0.219173
          0.258717 0.285459 0.297943 0.290625 0.266083 0.220849 0.245226 0.222881 0.269548 0.29727 0.287188 0.253531
          0.223081 0.265847 0.270779 0.289068 0.299192 0.295253 0.28471 0.273118 0.289581 0.293752 0.297647 0.300326
          0.29904 0.296247 0.294376 0.29769 0.29916 0.300111 0.299538 0.297131 0.291521 0.283357 0.284857 0.28974
          0.295612 0.298305 0.293047 0.278852 0.251414 0.255826 0.282065 0.293047 0.297245 0.288607 0.260504 0.219501
          0.219039 0.256934 0.283929 0.296598 0.286024 0.254669 0.218887 0.217902 0.222809 0.269251 0.294864 0.274274
          0.22269 0.221105 0.259671 0.270368 0.288936 0.298199 0.291663 0.272386 0.270691 0.288348 0.293488 0.29752
          0.299945 0.298075 0.294023 0.293582 0.297323 0.298997 0.299995 0.298284 0.294027 0.286294 0.283384 0.279006
          0.27078 0.288307 0.29598 0.285653 0.264853 0.25713 0.255913 0.277558 0.289945 0.295858 0.284469 0.253453
          0.218817 0.219804 0.259955 0.283738 0.296772 0.287402 0.258275 0.219165 0.245607 0.264101 0.285006 0.29708
          0.288144 0.26224 0.225771 0.269504 0.285721 0.293928 0.299063 0.295494 0.286568 0.275691 0.29084 0.296179
          0.29865 0.300156 0.298981 0.296524 0.294947 0.297923 0.299472 0.300188 0.296611 0.288074 0.271001 0.276652
          0.257127 0.224822 0.269958 0.291503 0.260448 0.223186 0.250061 0.224057 0.261485 0.281349 0.293374 0.271201
          0.221628 0.218812 0.219684 0.257172 0.26987 0.296966 0.288262 0.261708 0.221472 0.255404 0.278401 0.286481
          0.298662 0.294496 0.283569 0.265215 0.2829 0.291975 0.295707 0.299851 0.29826 0.294596 0.290403 0.295125
          0.297988 0.299266 0.300392 0.299852 0.298735 0.297864 0.299049 0.29991 0.300308 0.29801 0.293485 0.284052
          0.268379 0.222036 0.21978 0.264083 0.295643 0.284915 0.263117 0.249693 0.217318 0.250515 0.267705 0.295546
          0.283561 0.253643 0.218425 0.219279 0.247353 0.227219 0.297998 0.292603 0.278615 0.256485 0.259935 0.276459
          0.274676 0.299492 0.297381 0.292303 0.285367 0.287942 0.292864 0.294476 0.30021 0.299506 0.297928 0.296207
          0.297162 0.298525 0.299201 0.30047 0.300246 0.299775 0.299354 0.299657 0.300054 0.30027 0.298983 0.296202
          0.289449 0.278037 0.252773 0.256858 0.279651 0.297418 0.290495 0.271377 0.252247 0.218667 0.244822 0.268393
          0.295623 0.278628 0.2287 0.218018 0.219512 0.219605 0.232049 0.298174 0.292432 0.274737 0.261466 0.259006
          0.265648 0.276498 0.299694 0.29803 0.293852 0.28949 0.288793 0.291666 0.294603 0.300268 0.299833 0.298824
          0.29774 0.29768 0.298461 0.299168 0.300433 0.300317 0.300058 0.299788 0.2998 0.300016 0.300195 0.299432
          0.297453 0.291886 0.279904 0.25656 0.247011 0.280577 0.29851 0.294259 0.28151 0.254177 0.218098 0.219755
          0.264084 0.297498 0.289673 0.263217 0.220159 0.21955 0.248478 0.270433 0.298803 0.295149 0.284438 0.264141
          0.260998 0.278717 0.288147 0.299809 0.298589 0.295396 0.290515 0.289491 0.29377 0.296574 0.300227 0.299897
          0.299082 0.297994 0.297802 0.298722 0.299425 0.300349 0.300262 0.300055 0.299796 0.299764 0.299984 0.300159
          0.299464 0.29753 0.291534 0.278483 0.260589 0.275985 0.289517 0.298828 0.295231 0.283029 0.254318 0.218839
          0.254502 0.282165 0.298442 0.294087 0.280384 0.25107 0.219854 0.259683 0.283983 0.299073 0.296421 0.2889
          0.275113 0.262967 0.283101 0.292507 0.299762 0.298668 0.295782 0.291315 0.289744 0.294705 0.297573 0.30012
          0.29978 0.298922 0.297759 0.297659 0.298796 0.299545 0.30024 0.300141 0.2999 0.299601 0.299619 0.299904
          0.300097 0.299219 0.296692 0.287805 0.265707 0.262128 0.283703 0.293445 0.298472 0.293408 0.270485 0.221335
          0.219824 0.264403 0.288226 0.298227 0.293416 0.277275 0.244895 0.219843 0.261471 0.287217 0.298638 0.295009
          0.283536 0.260057 0.260851 0.283555 0.293624 0.299432 0.297785 0.293145 0.285502 0.287982 0.294526 0.297766
          0.299926 0.299385 0.29798 0.296096 0.29693 0.298587 0.299485 0.300106 0.299943 0.299542 0.29907 0.299308
          0.29975 0.299995 0.29916 0.297026 0.29075 0.279739 0.279079 0.289684 0.295588 0.298367 0.294084 0.279907
          0.252878 0.252295 0.278752 0.291889 0.297561 0.290621 0.263512 0.219837 0.219638 0.263303 0.288462 0.297803
          0.291477 0.266112 0.220542 0.255075 0.282852 0.293778 0.29896 0.296266 0.287522 0.2687 0.284359 0.293859
          0.297645 0.299697 0.298849 0.296494 0.29289 0.295792 0.29825 0.299349 0.299964 0.299716 0.299085 0.298318
          0.298916 0.299566 0.299875
        </DataArray>
        <DataArray type="Float32" Name="process rank" NumberOfComponents="1" format="ascii">
          0 0 0 0 0 0 0 0 0 0 0 0
          0 0 0 0 0 0 0 0 0 0 0 0
          0 0 0 0 0 0 0 0 0 0 0 0
          0 0 0 0 0 0 0 0 0 0 0 0
          0 0 0 0 0 0 0 0 0 0 0 0
          0 0 0 0 0 0 0 0 0 0 0 0
          0 0 0 0 0 0 0 0 0 0 0 0
          0 0 0 0 0 0 0 0 0 0 0 0
          0 0 0 0 0 0 0 0 0 0 0 0
          0 0 0 0 0 0 0 0 0 0 0 0
          0 0 0 0 0 0 0 0 0 0 0 0
          0 0 0 0 0 0 0 0 0 0 0 0
          0 0 0 0 0 0 0 0 0 0 0 0
          0 0 0 0 0 0 0 0 0 0 0 0
          0 0 0 0 0 0 0 0 0 0 0 0
          0 0 0 0 0 0 0 0 0 0 0 0
          0 0 0 0 0 0 0 0 0 0 0 0
          0 0 0 0 0 0 0 0 0 0 0 0
          0 0 0 0 0 0 0 0 0 0 0 0
          0 0 0 0 0 0 0 0 0 0 0 0
          0 0 0 0 0 0 0 0 0 0 0 0
          0 0 0 0 0 0 0 0 0 0 0 0
          0 0 0 0 0 0 0 0 0 0 0 0
          0 0 0 0 0 0 0 0 0 0 0 0
          0 0 0 0 0 0 0 0 0 0 0 0
          0 0 0 0 0 0 0 0 0 0 0 0
          0 0 0 0 0 0 0 0 0 0 0 0
          0 0 0 0 0 0 0 0 0 0 0 0
          0 0 0 0 0 0 0 0 0 0 0 0
          0 0 0 0 0 0 0 0 0 0 0 0
          0 0 0 0 0 0 0 0 0 0 0 0
          0 0 0 0 0 0 0 0 0 0 0 0
          0 0 0 0 0 0 0 0 0 0 0 0
          0 0 0 0 0 0 0 0 0 0 0 0
          0 0 0 0 0 0 0 0 0 0 0 0
          0 0 0 0 0 0 0 0 0 0 0 0
          0 0 0 0 0 0 0 0 0 0 0 0
          0 0 0 0 0 0 0 0 0 0 0 0
          0 0 0 0 0 0 0 0 0 0 0 0
          0 0 0 0 0 0 0 0 0 0 0 0
          0 0 0 0 0 0 0 0 0 0 0 0
          0 0 0 0 0 0 0 0 0 0 0 0
          0 0 0 0 0 0 0 0 0 0 0 0
          0 0 0 0 0 0 0 0 0 0 0 0
          0 0 0 0 0 0 0 0 0 0 0 0
          0 0 0 0 0 0 0 0 0 0 0 0
          0 0 0 0 0 0 0 0 0 0 0 0
          0 0 0 0 0 0 0 0 0 0 0 0
          0 0 0 0 0 0 0 0 0 0 0 0
          0 0 0 0 0 0 0 0 0 0 0 0
          0 0 0 0 0 0 0 0 0 0 0 0
          0 0 0 0 0 0 0 0 0 0 0 0
          0 0 0 0 0 0 0 0 0 0 0 0
          0 0 0 0 0 0 0 0 0 0 0 0
          0 0 0 0 0 0 0 0 0 0 0 0
          0 0 0 0 0 0 0 0 0 0 0 0
          0 0 0 0 0 0 0 0 0 0 0 0
          0 0 0 0 0 0 0 0 0 0 0 0
          0 0 0 0 0 0 0 0 0 0 0 0
          0 0 0 0 0 0 0 0 0 0 0 0
          0 0 0 0 0 0 0 0 0 0 0 0
          0 0 0
        </DataArray>
      </CellData>
      <Points>
        <DataArray type="Float32" Name="Coordinates" NumberOfComponents="3" format="ascii">
          -0.04 -0.04 -0.15 -0.0285714 -0.04 -0.15 -0.04 -0.0285714 -0.15 -0.0285714 -0.0285714 -0.15
          -0.04 -0.04 -0.14 -0.0285714 -0.04 -0.14 -0.04 -0.0285714 -0.14 -0.0285714 -0.0285714 -0.14
          -0.0171429 -0.04 -0.15 -0.0171429 -0.0285714 -0.15 -0.0171429 -0.04 -0.14 -0.0171429 -0.0285714 -0.14
          -0.00571429 -0.04 -0.15 -0.00571429 -0.0285714 -0.15 -0.00571429 -0.04 -0.14 -0.00571429 -0.0285714 -0.14
          0.00571429 -0.04 -0.15 0.00571429 -0.0285714 -0.15 0.00571429 -0.04 -0.14 0.00571429 -0.0285714 -0.14
          0.0171429 -0.04 -0.15 0.0171429 -0.0285714 -0.15 0.0171429 -0.04 -0.14 0.0171429 -0.0285714 -0.14
          0.0285714 -0.04 -0.15 0.0285714 -0.0285714 -0.15 0.0285714 -0.04 -0.14 0.0285714 -0.0285714 -0.14
          0.04 -0.04 -0.15 0.04 -0.0285714 -0.15 0.04 -0.04 -0.14 0.04 -0.0285714 -0.14
          -0.04 -0.0171429 -0.15 -0.0285714 -0.0171429 -0.15 -0.04 -0.0171429 -0.14 -0.0285714 -0.0171429 -0.14
          -0.0171429 -0.0171429 -0.15 -0.0171429 -0.0171429 -0.14 -0.00571429 -0.0171429 -0.15 -0.00571429 -0.0171429 -0.14
          0.00571429 -0.0171429 -0.15 0.00571429 -0.0171429 -0.14 0.0171429 -0.0171429 -0.15 0.0171429 -0.0171429 -0.14
          0.0285714 -0.0171429 -0.15 0.0285714 -0.0171429 -0.14 0.04 -0.0171429 -0.15 0.04 -0.0171429 -0.14
          -0.04 -0.00571429 -0.15 -0.0285714 -0.00571429 -0.15 -0.04 -0.00571429 -0.14 -0.0285714 -0.00571429 -0.14
          -0.0171429 -0.00571429 -0.15 -0.0171429 -0.00571429 -0.14 -0.00571429 -0.00571429 -0.15 -0.00571429 -0.00571429 -0.14
          0.00571429 -0.00571429 -0.15 0.00571429 -0.00571429 -0.14 0.0171429 -0.00571429 -0.15 0.0171429 -0.00571429 -0.14
          0.0285714 -0.00571429 -0.15 0.0285714 -0.00571429 -0.14 0.04 -0.00571429 -0.15 0.04 -0.00571429 -0.14
          -0.04 0.00571429 -0.15 -0.0285714 0.00571429 -0.15 -0.04 0.00571429 -0.14 -0.0285714 0.00571429 -0.14
          -0.0171429 0.00571429 -0.15 -0.0171429 0.00571429 -0.14 -0.00571429 0.00571429 -0.15 -0.00571429 0.00571429 -0.14
          0.00571429 0.00571429 -0.15 0.00571429 0.00571429 -0.14 0.0171429 0.00571429 -0.15 0.0171429 0.00571429 -0.14
          0.0285714 0.00571429 -0.15 0.0285714 0.00571429 -0.14 0.04 0.00571429 -0.15 0.04 0.00571429 -0.14
          -0.04 0.0171429 -0.15 -0.0285714 0.0171429 -0.15 -0.04 0.0171429 -0.14 -0.0285714 0.0171429 -0.14
          -0.0171429 0.0171429 -0.15 -0.0171429 0.0171429 -0.14 -0.00571429 0.0171429 -0.15 -0.00571429 0.0171429 -0.14
          0.00571429 0.0171429 -0.15 0.00571429 0.0171429 -0.14 0.0171429 0.0171429 -0.15 0.0171429 0.0171429 -0.14
          0.0285714 0.0171429 -0.15 0.0285714 0.0171429 -0.14 0.04 0.0171429 -0.15 0.04 0.0171429 -0.14
          -0.04 0.0285714 -0.15 -0.0285714 0.0285714 -0.15 -0.04 0.0285714 -0.14 -0.0285714 0.0285714 -0.14
          -0.0171429 0.0285714 -0.15 -0.0171429 0.0285714 -0.14 -0.00571429 0.0285714 -0.15 -0.00571429 0.0285714 -0.14
          0.00571429 0.0285714 -0.15 0.00571429 0.0285714 -0.14 0.0171429 0.0285714 -0.15 0.0171429 0.0285714 -0.14
          0.0285714 0.0285714 -0.15 0.0285714 0.0285714 -0.14 0.04 0.0285714 -0.15 0.04 0.0285714 -0.14
          -0.04 0.04 -0.15 -0.0285714 0.04 -0.15 -0.04 0.04 -0.14 -0.0285714 0.04 -0.14
          -0.0171429 0.04 -0.15 -0.0171429 0.04 -0.14 -0.00571429 0.04 -0.15 -0.00571429 0.04 -0.14
          0.00571429 0.04 -0.15 0.00571429 0.04 -0.14 0.0171429 0.04 -0.15 0.0171429 0.04 -0.14
          0.0285714 0.04 -0.15 0.0285714 0.04 -0.14 0.04 0.04 -0.15 0.04 0.04 -0.14
          -0.04 -0.04 -0.13 -0.0285714 -0.04 -0.13 -0.04 -0.0285714 -0.13 -0.0285714 -0.0285714 -0.13
          -0.0171429 -0.04 -0.13 -0.0171429 -0.0285714 -0.13 -0.00571429 -0.04 -0.13 -0.00571429 -0.0285714 -0.13
          0.00571429 -0.04 -0.13 0.00571429 -0.0285714 -0.13 0.0171429 -0.04 -0.13 0.0171429 -0.0285714 -0.13
          0.0285714 -0.04 -0.13 0.0285714 -0.0285714 -0.13 0.04 -0.04 -0.13 0.04 -0.0285714 -0.13
          -0.04 -0.0171429 -0.13 -0.0285714 -0.0171429 -0.13 -0.0171429 -0.0171429 -0.13 -0.00571429 -0.0171429 -0.13
          0.00571429 -0.0171429 -0.13 0.0171429 -0.0171429 -0.13 0.0285714 -0.0171429 -0.13 0.04 -0.0171429 -0.13
          -0.04 -0.00571429 -0.13 -0.0285714 -0.00571429 -0.13 -0.0171429 -0.00571429 -0.13 -0.00571429 -0.00571429 -0.13
          0.00571429 -0.00571429 -0.13 0.0171429 -0.00571429 -0.13 0.0285714 -0.00571429 -0.13 0.04 -0.00571429 -0.13
          -0.04 0.00571429 -0.13 -0.0285714 0.00571429 -0.13 -0.0171429 0.00571429 -0.13 -0.00571429 0.00571429 -0.13
          0.00571429 0.00571429 -0.13 0.0171429 0.00571429 -0.13 0.0285714 0.00571429 -0.13 0.04 0.00571429 -0.13
          -0.04 0.0171429 -0.13 -0.0285714 0.0171429 -0.13 -0.0171429 0.0171429 -0.13 -0.00571429 0.0171429 -0.13
          0.00571429 0.0171429 -0.13 0.0171429 0.0171429 -0.13 0.0285714 0.0171429 -0.13 0.04 0.0171429 -0.13
          -0.04 0.0285714 -0.13 -0.0285714 0.0285714 -0.13 -0.0171429 0.0285714 -0.13 -0.00571429 0.0285714 -0.13
          0.00571429 0.0285714 -0.13 0.0171429 0.0285714 -0.13 0.0285714 0.0285714 -0.13 0.04 0.0285714 -0.13
          -0.04 0.04 -0.13 -0.0285714 0.04 -0.13 -0.0171429 0.04 -0.13 -0.00571429 0.04 -0.13
          0.00571429 0.04 -0.13 0.0171429 0.04 -0.13 0.0285714 0.04 -0.13 0.04 0.04 -0.13
          -0.04 -0.04 -0.12 -0.0285714 -0.04 -0.12 -0.04 -0.0285714 -0.12 -0.0285714 -0.0285714 -0.12
          -0.0171429 -0.04 -0.12 -0.0171429 -0.0285714 -0.12 -0.00571429 -0.04 -0.12 -0.00571429 -0.0285714 -0.12
          0.00571429 -0.04 -0.12 0.00571429 -0.0285714 -0.12 0.0171429 -0.04 -0.12 0.0171429 -0.0285714 -0.12
          0.0285714 -0.04 -0.12 0.0285714 -0.0285714 -0.12 0.04 -0.04 -0.12 0.04 -0.0285714 -0.12
          -0.04 -0.0171429 -0.12 -0.0285714 -0.0171429 -0.12 -0.0171429 -0.0171429 -0.12 -0.00571429 -0.0171429 -0.12
          0.00571429 -0.0171429 -0.12 0.0171429 -0.0171429 -0.12 0.0285714 -0.0171429 -0.12 0.04 -0.0171429 -0.12
          -0.04 -0.00571429 -0.12 -0.0285714 -0.00571429 -0.12 -0.0171429 -0.00571429 -0.12 -0.00571429 -0.00571429 -0.12
          0.00571429 -0.00571429 -0.12 0.0171429 -0.00571429 -0.12 0.0285714 -0.00571429 -0.12 0.04 -0.00571429 -0.12
          -0.04 0.00571429 -0.12 -0.0285714 0.00571429 -0.12 -0.0171429 0.00571429 -0.12 -0.00571429 0.00571429 -0.12
          0.00571429 0.00571429 -0.12 0.0171429 0.00571429 -0.12 0.0285714 0.00571429 -0.12 0.04 0.00571429 -0.12
          -0.04 0.0171429 -0.12 -0.0285714 0.0171429 -0.12 -0.0171429 0.0171429 -0.12 -0.00571429 0.0171429 -0.12
          0.00571429 0.0171429 -0.12 0.0171429 0.0171429 -0.12 0.0285714 0.0171429 -0.12 0.04 0.0171429 -0.12
          -0.04 0.0285714 -0.12 -0.0285714 0.0285714 -0.12 -0.0171429 0.0285714 -0.12 -0.00571429 0.0285714 -0.12
          0.00571429 0.0285714 -0.12 0.0171429 0.0285714 -0.12 0.0285714 0.0285714 -0.12 0.04 0.0285714 -0.12
          -0.04 0.04 -0.12 -0.0285714 0.04 -0.12 -0.0171429 0.04 -0.12 -0.00571429 0.04 -0.12
          0.00571429 0.04 -0.12 0.0171429 0.04 -0.12 0.0285714 0.04 -0.12 0.04 0.04 -0.12
          -0.04 -0.04 -0.11 -0.0285714 -0.04 -0.11 -0.04 -0.0285714 -0.11 -0.0285714 -0.0285714 -0.11
          -0.0171429 -0.04 -0.11 -0.0171429 -0.0285714 -0.11 -0.00571429 -0.04 -0.11 -0.00571429 -0.0285714 -0.11
          0.00571429 -0.04 -0.11 0.00571429 -0.0285714 -0.11 0.0171429 -0.04 -0.11 0.0171429 -0.0285714 -0.11
          0.0285714 -0.04 -0.11 0.0285714 -0.0285714 -0.11 0.04 -0.04 -0.11 0.04 -0.0285714 -0.11
          -0.04 -0.0171429 -0.11 -0.0285714 -0.0171429 -0.11 -0.0171429 -0.0171429 -0.11 -0.00571429 -0.0171429 -0.11
          0.00571429 -0.0171429 -0.11 0.0171429 -0.0171429 -0.11 0.0285714 -0.0171429 -0.11 0.04 -0.0171429 -0.11
          -0.04 -0.00571429 -0.11 -0.0285714 -0.00571429 -0.11 -0.0171429 -0.00571429 -0.11 -0.00571429 -0.00571429 -0.11
          0.00571429 -0.00571429 -0.11 0.0171429 -0.00571429 -0.11 0.0285714 -0.00571429 -0.11 0.04 -0.00571429 -0.11
          -0.04 0.00571429 -0.11 -0.0285714 0.00571429 -0.11 -0.0171429 0.00571429 -0.11 -0.00571429 0.00571429 -0.11
          0.00571429 0.00571429 -0.11 0.0171429 0.00571429 -0.11 0.0285714 0.00571429 -0.11 0.04 0.00571429 -0.11
          -0.04 0.0171429 -0.11 -0.0285714 0.0171429 -0.11 -0.0171429 0.0171429 -0.11 -0.00571429 0.0171429 -0.11
          0.00571429 0.0171429 -0.11 0.0171429 0.0171429 -0.11 0.0285714 0.0171429 -0.11 0.04 0.0171429 -0.11
          -0.04 0.0285714 -0.11 -0.0285714 0.0285714 -0.11 -0.0171429 0.0285714 -0.11 -0.00571429 0.0285714 -0.11
          0.00571429 0.0285714 -0.11 0.0171429 0.0285714 -0.11 0.0285714 0.0285714 -0.11 0.04 0.0285714 -0.11
          -0.04 0.04 -0.11 -0.0285714 0.04 -0.11 -0.0171429 0.04 -0.11 -0.00571429 0.04 -0.11
          0.00571429 0.04 -0.11 0.0171429 0.04 -0.11 0.0285714 0.04 -0.11 0.04 0.04 -0.11
          -0.04 -0.04 -0.1 -0.0285714 -0.04 -0.1 -0.04 -0.0285714 -0.1 -0.0285714 -0.0285714 -0.1
          -0.0171429 -0.04 -0.1 -0.0171429 -0.0285714 -0.1 -0.00571429 -0.04 -0.1 -0.00571429 -0.0285714 -0.1
          0.00571429 -0.04 -0.1 0.00571429 -0.0285714 -0.1 0.0171429 -0.04 -0.1 0.0171429 -0.0285714 -0.1
          0.0285714 -0.04 -0.1 0.0285714 -0.0285714 -0.1 0.04 -0.04 -0.1 0.04 -0.0285714 -0.1
          -0.04 -0.0171429 -0.1 -0.0285714 -0.0171429 -0.1 -0.0171429 -0.0171429 -0.1 -0.00571429 -0.0171429 -0.1
          0.00571429 -0.0171429 -0.1 0.0171429 -0.0171429 -0.1 0.0285714 -0.0171429 -0.1 0.04 -0.0171429 -0.1
          -0.04 -0.00571429 -0.1 -0.0285714 -0.00571429 -0.1 -0.0171429 -0.00571429 -0.1 -0.00571429 -0.00571429 -0.1
          0.00571429 -0.00571429 -0.1 0.0171429 -0.00571429 -0.1 0.0285714 -0.00571429 -0.1 0.04 -0.00571429 -0.1
          -0.04 0.00571429 -0.1 -0.0285714 0.00571429 -0.1 -0.0171429 0.00571429 -0.1 -0.00571429 0.00571429 -0.1
          0.00571429 0.00571429 -0.1 0.0171429 0.00571429 -0.1 0.0285714 0.00571429 -0.1 0.04 0.00571429 -0.1
          -0.04 0.0171429 -0.1 -0.0285714 0.0171429 -0.1 -0.0171429 0.0171429 -0.1 -0.00571429 0.0171429 -0.1
          0.00571429 0.0171429 -0.1 0.0171429 0.0171429 -0.1 0.0285714 0.0171429 -0.1 0.04 0.0171429 -0.1
          -0.04 0.0285714 -0.1 -0.0285714 0.0285714 -0.1 -0.0171429 0.0285714 -0.1 -0.00571429 0.0285714 -0.1
          0.00571429 0.0285714 -0.1 0.0171429 0.0285714 -0.1 0.0285714 0.0285714 -0.1 0.04 0.0285714 -0.1
          -0.04 0.04 -0.1 -0.0285714 0.04 -0.1 -0.0171429 0.04 -0.1 -0.00571429 0.04 -0.1
          0.00571429 0.04 -0.1 0.0171429 0.04 -0.1 0.0285714 0.04 -0.1 0.04 0.04 -0.1
          -0.04 -0.04 -0.09 -0.0285714 -0.04 -0.09 -0.04 -0.0285714 -0.09 -0.0285714 -0.0285714 -0.09
          -0.0171429 -0.04 -0.09 -0.0171429 -0.0285714 -0.09 -0.00571429 -0.04 -0.09 -0.00571429 -0.0285714 -0.09
          0.00571429 -0.04 -0.09 0.00571429 -0.0285714 -0.09 0.0171429 -0.04 -0.09 0.0171429 -0.0285714 -0.09
          0.0285714 -0.04 -0.09 0.0285714 -0.0285714 -0.09 0.04 -0.04 -0.09 0.04 -0.0285714 -0.09
          -0.04 -0.0171429 -0.09 -0.0285714 -0.0171429 -0.09 -0.0171429 -0.0171429 -0.09 -0.00571429 -0.0171429 -0.09
          0.00571429 -0.0171429 -0.09 0.0171429 -0.0171429 -0.09 0.0285714 -0.0171429 -0.09 0.04 -0.0171429 -0.09
          -0.04 -0.00571429 -0.09 -0.0285714 -0.00571429 -0.09 -0.0171429 -0.00571429 -0.09 -0.00571429 -0.00571429 -0.09
          0.00571429 -0.00571429 -0.09 0.0171429 -0.00571429 -0.09 0.0285714 -0.00571429 -0.09 0.04 -0.00571429 -0.09
          -0.04 0.00571429 -0.09 -0.0285714 0.00571429 -0.09 -0.0171429 0.00571429 -0.09 -0.00571429 0.00571429 -0.09
          0.00571429 0.00571429 -0.09 0.0171429 0.00571429 -0.09 0.0285714 0.00571429 -0.09 0.04 0.00571429 -0.09
          -0.04 0.0171429 -0.09 -0.0285714 0.0171429 -0.09 -0.0171429 0.0171429 -0.09 -0.00571429 0.0171429 -0.09
          0.00571429 0.0171429 -0.09 0.0171429 0.0171429 -0.09 0.0285714 0.0171429 -0.09 0.04 0.0171429 -0.09
          -0.04 0.0285714 -0.09 -0.0285714 0.0285714 -0.09 -0.0171429 0.0285714 -0.09 -0.00571429 0.0285714 -0.09
          0.00571429 0.0285714 -0.09 0.0171429 0.0285714 -0.09 0.0285714 0.0285714 -0.09 0.04 0.0285714 -0.09
          -0.04 0.04 -0.09 -0.0285714 0.04 -0.09 -0.0171429 0.04 -0.09 -0.00571429 0.04 -0.09
          0.00571429 0.04 -0.09 0.0171429 0.04 -0.09 0.0285714 0.04 -0.09 0.04 0.04 -0.09
          -0.04 -0.04 -0.08 -0.0285714 -0.04 -0.08 -0.04 -0.0285714 -0.08 -0.0285714 -0.0285714 -0.08
          -0.0171429 -0.04 -0.08 -0.0171429 -0.0285714 -0.08 -0.00571429 -0.04 -0.08 -0.00571429 -0.0285714 -0.08
          0.00571429 -0.04 -0.08 0.00571429 -0.0285714 -0.08 0.0171429 -0.04 -0.08 0.0171429 -0.0285714 -0.08
          0.0285714 -0.04 -0.08 0.0285714 -0.0285714 -0.08 0.04 -0.04 -0.08 0.04 -0.0285714 -0.08
          -0.04 -0.0171429 -0.08 -0.0285714 -0.0171429 -0.08 -0.0171429 -0.0171429 -0.08 -0.00571429 -0.0171429 -0.08
          0.00571429 -0.0171429 -0.08 0.0171429 -0.0171429 -0.08 0.0285714 -0.0171429 -0.08 0.04 -0.0171429 -0.08
          -0.04 -0.00571429 -0.08 -0.0285714 -0.00571429 -0.08 -0.0171429 -0.00571429 -0.08 -0.00571429 -0.00571429 -0.08
          0.00571429 -0.00571429 -0.08 0.0171429 -0.00571429 -0.08 0.0285714 -0.00571429 -0.08 0.04 -0.00571429 -0.08
          -0.04 0.00571429 -0.08 -0.0285714 0.00571429 -0.08 -0.0171429 0.00571429 -0.08 -0.00571429 0.00571429 -0.08
          0.00571429 0.00571429 -0.08 0.0171429 0.00571429 -0.08 0.0285714 0.00571429 -0.08 0.04 0.00571429 -0.08
          -0.04 0.0171429 -0.08 -0.0285714 0.0171429 -0.08 -0.0171429 0.0171429 -0.08 -0.00571429 0.0171429 -0.08
          0.00571429 0.0171429 -0.08 0.0171429 0.0171429 -0.08 0.0285714 0.0171429 -0.08 0.04 0.0171429 -0.08