<?xml version="1.0"?>
<VTKFile type="UnstructuredGrid" version="0.1" byte_order="LittleEndian">
  <UnstructuredGrid>
    <Piece NumberOfCells="960" NumberOfPoints="1296">
      <CellData Scalars="p (Pa)">
        <DataArray type="Float32" Name="p (Pa)" NumberOfComponents="1" format="ascii">
          71579.8 71524.7 71433.1 71339.7 71283.3 71282.1 71315.4 71345.4 71577.4 71520.5 71425.4 71327.9
          71269.2 71269.8 71306.8 71339.3 71582.3 71525 71429.1 71330.4 71271.4 71273.9 71313.3 71347.3
          71604.7 71551.8 71463.9 71374.7 71322.4 71324.7 71360.2 71391 71645.6 71601.5 71529.2 71457.6
          71417 71419 71446.9 71471.2 71696 71662 71607.4 71554.9 71526.3 71528.3 71548.7 71566.4
          71741.2 71715.8 71675.6 71638 71618.4 71620.6 71635.4 71648.1 71767.7 71747.1 71714.8 71685.2
          71670.2 71672.5 71684.5 71694.6 71365.8 71286 71151 71010.7 70927.6 70935.2 70996.1 71047.2
          71358.9 71274.6 71130.5 70978.6 70888.5 70901.7 70972.5 71030.2 71360.3 71273.5 71124 70964.8
          70870.3 70888.9 70967.6 71030.3 71386.9 71306.2 71169.1 71026.3 70944.3 70959.6 71029.4 71086.1
          71440.5 71373.7 71262.7 71151.6 71091.6 71103.5 71156.1 71199.5 71508.5 71458.1 71376.4 71298.2
          71258.8 71268.3 71305.1 71335.2 71570.3 71533.5 71475.3 71421.8 71396.5 71404.3 71429.9 71450.5
          71606.7 71577.4 71531.9 71491.1 71472.6 71479.4 71499.4 71515.4 71034.7 70900.5 70666.8 70415
          70266.8 70301.1 70432.5 70535.5 71016.4 70870.1 70610.3 70321.5 70147.8 70202.9 70366.8 70489.5
          71008.2 70852.3 70571.2 70250.3 70052 70130.2 70324.5 70465.2 71041.9 70896.1 70638.1 70355.3
          70192.5 70251.3 70418.5 70545 71122 71002.2 70797.4 70587.2 70480.9 70523.6 70642.6 70735
          71227.8 71139.3 70993.8 70854.3 70792.2 70823.6 70901.9 70962.6 71325 71262.7 71163.6 71073.8
          71037.7 71060.7 71112.4 71151.8 71382.4 71334.3 71259.6 71194.3 71169.6 71188.1 71226.9 71256.2
          70594.4 70370.2 69965 69504.9 69227.3 69327 69601.9 69803.4 70554.7 70301.2 69827.4 69256.2
          68888.4 69065.7 69440.9 69697.7 70525.9 70245 69703.6 69010.8 68518.5 68809.5 69298.6 69614.6
          70567.7 70302.2 69805.5 69214 68856 69041.2 69444.3 69728.7 70688.5 70471.3 70083.5 69666.2
          69472.7 69597.1 69862.7 70058.4 70854.9 70698.3 70433.1 70174.8 70079.5 70164.4 70327.5 70447.5
          71009.8 70903.4 70731.9 70577.7 70528.6 70585.3 70686.3 70759.8 71101.1 71021.8 70897.9 70792
          70760.7 70802.8 70875.2 70927.5 70075.4 69728 69074.8 68285.4 67783 68010.7 68526.4 68882.3
          70003.3 69595.8 68788 67709 66922.1 67408.7 68192.3 68679.5 69940.6 69468.8 68481.7 66994.3
          65561.7 66660.2 67831.6 68486.6 69988.7 69536.4 68626.6 67410.5 66602.8 67110.3 68032 68637.4
          70162.7 69791.2 69084.1 68256.7 67939.7 68259.7 68807.2 69192.9 70412.8 70150.7 69686.3 69215
          69094 69295 69606.5 69824.8 70647.1 70476.4 70193.8 69938.2 69882.6 70003.2 70183.2 70308.2
          70784.8 70662.1 70468.2 70304.2 70269.9 70352.2 70474.9 70559.8 69534.9 69051.7 68115.1 66925.4
          66128.4 66506.4 67318.6 67860.5 69426.1 68843.8 67635.7 65889.6 64524.9 65446.1 66774.1 67552.7
          69324.1 68624.7 67056.9 64354.1 61582.8 63923.7 66104 67233.2 69379.7 68694.4 67210.5 64965.2
          63457.8 64628.9 66260.4 67421.3 69616.1 69047.4 67872.6 66261 65937.8 66649.6 67613.7 68278.2
          69964 69571.3 68831 68007.1 67930.1 68335.3 68853.7 69198.9 70289.1 70043.8 69623.6 69231
          69189.1 69403.8 69683.6 69869.1 70478.2 70308.4 70035.2 69803.2 69772.6 69906.4 70087.1 70208
          69038.3 68433.1 67240.3 65678 64557 65001.6 66095.9 66822.9 68901.8 68165.5 66607.4 64281.7
          62345.8 63580.6 65425.3 66469.8 68776.4 67879.5 65808.5 62088.9 58018.4 61373.2 64617.3 66141.3
          68857.7 67971.7 65951.1 62537 59972 61964.2 64985.1 66487.8 69168.3 68441.4 66865.3 64528.1
          64055.4 65220.1 66724.5 67593.5 69608.9 69117.1 68145.3 66925.7 66953.3 67565.9 68286.1 68727.9
          70010.6 69713 69189.5 68678.2 68652.5 68944.5 69304 69533.2 70240.3 70039.2 69711.3 69428.2
          69398.4 69567.9 69789.3 69934.5 68633 67928 66517.8 64611.2 63081.2 63420.6 64817.9 65754.8
          68485.5 67627.8 65788.3 62993.2 60452.6 61837.1 64142.1 65426.3 68368.6 67331 64892.6 60481.8
          55176.2 59508.8 63484.2 65242.2 68516.3 67537.8 65291 61433.5 57870 61087.6 64373.3 65910.3
          68914.9 68154.4 66516.9 64078 63314.2 64721.7 66338.8 67225.1 69424.1 68931.2 67983 66888.7
          66692.3 67289.2 68028.3 68475.9 69863.3 69568.5 69057 68564.6 68484 68754.6 69112.5 69342.5
          70108.5 69909.1 69585.2 69302.8 69252.5 69408.2 69625.6 69770.2 68352.4 67578.9 66002 63779.7
          61708.9 61564.7 63410.7 64634.3 68213.7 67277.9 65230.5 62079.6 58947.6 59971.8 62764.8 64331.3
          68134.4 67017.8 64277.1 59562.5 53914.2 58044.1 62426.6 64350.7 68371.3 67409.4 65246 61771
          58470.6 61155.1 64059.7 65484.3 68848.2 68162.1 66763.5 64908.8 63916.2 64925.1 66273.5 67049.1
          69388.1 68959.8 68170.4 67303.1 66984.4 67392 67996.8 68381.5 69826.9 69571 69136.5 68719
          68590.7 68777.3 69069.8 69266.8 70065.9 69890.9 69608.6 69357 69284 69394.1 69572.7 69696.7
          68208.6 67421.5 65795.4 63394.4 60854.4 60120.2 62214.8 63676 68102.6 67182.6 65170.6 61926.4
          58182.4 58177.5 61407.2 63297.5 68084.2 67051.2 64642.4 60332.9 54653.5 57214.1 61369.1 63423.4
          68374.8 67514.5 65650.4 62785.2 60188.6 61556 63828.9 65123.3 68882.7 68296 67145.9 65689
          64775.4 65307.6 66313.3 66961.8 69419.2 69061.9 68420.8 67724.5 67382.9 67606 68053.4 68364.2
          69838.4 69625.4 69268 68918.9 68770.4 68876.5 69093.9 69251 70062.5 69915.7 69679.3 69461.9
          69375.7 69440.5 69574.3 69672.9 68145.2 67368.5 65748.3 63309.2 60695.9 59936.9 61799.5 63299
          68065.3 67170.7 65186.1 61854.2 57758.1 57173.9 60596.8 62831.5 68086.1 67106.2 64779.1 60389.4
          54217.4 55687.5 60345.6 63072.1 68401.6 67606.8 65876.4 63146.3 60715.7 61544.9 63662.2 65027.6
          68915.8 68391.6 67370.4 66070.9 65209.4 65532.2 66381.7 66981.8 69440.1 69128.8 68573.9 67965.5
          67630.3 67763.4 68123.7 68392.2 69840.3 69657.2 69350.5 69045.1 68894.4 68956.9 69127.5 69258.3
          70051.8 69926.1 69723.1 69531.6 69442.5 69480.6 69584.2 69664.8 68108.9 67355.9 65784.9 63433.3
          61053.2 60697.5 62333.3 63684 68040.9 67176.2 65244.6 61936.8 57969.2 58134.3 61232.1 63317.1
          68074.3 67133.5 64881.9 60371.1 54027.1 57114.6 61518.2 63743.9 68387.4 67625.1 65958.9 63301.1
          60940.1 62133.9 64198.3 65424.2 68895.1 68397.5 67428.7 66197.5 65401.4 65783.7 66608.7 67167.9
          69411.1 69120.5 68603.5 68038.9 67733.4 67871.6 68213.7 68464.4 69802.8 69634.6 69353.4 69073.8
          68935.7 68994.1 69151.4 69272 70008.5 69894.5 69710.4 69536.4 69454 69486.8 69580 69653.1
          68061.3 67336.9 65847 63702.1 61790.1 62017.6 63470.5 64534.5 67989.7 67153.8 65314.8 62290.8
          59074.1 60258 62809.9 64326.4 68008.2 67087.3 64926.8 60831.7 55354.6 59079.9 62909.3 64669.2
          68295.6 67521.2 65835.4 63242.9 61254.4 62822.2 64850.3 65948.9 68797.6 68287 67294.8 66075.3
          65433.4 65981.8 66851.1 67394.6 69320.5 69025.7 68504 67953.3 67710.2 67913.1 68282.9 68536.4
          69719 69552.1 69275.1 69008 68896.3 68979.5 69149 69272.2 69928 69817.1 69639.4 69475.9
          69407.6 69452 69550.9 69625.3 67979.7 67265.9 65812.9 63787 62191.2 62876.4 64314.1 65234.9
          67887.1 67041.1 65182.9 62173.4 59250.3 61337.4 63802.8 65087.9 67863.3 66881.5 64539 60050.1
          54622.1 59939.2 63738.9 65318.6 68111.3 67224.3 65193.5 61933.3 60536.5 63018.2 65238.4 66315.3
          68625.7 68041.7 66872.5 65447.4 65081.1 65970.9 66973.5 67540.4 69179.1 68852.9 68270 67677.1
          67532.4 67856.1 68289.5 68562.5 69601 69423.4 69129.6 68858.7 68783.3 68911 69108.4 69242.5
          69821 69706.7 69525.3 69365.2 69314.5 69379.9 69493.2 69574 67877.2 67161.2 65714.9 63760.2
          62413.6 63279.6 64701.1 65562.7 67761.3 66884.9 64951.7 61885.6 59456 61834.4 64235.7 65431.2
          67691.3 66604.9 63898.6 58464.6 53798 60286.2 64087.2 65598.6 67900.5 66832.4 64083.1 58533.2
          59144.9 62890.1 65354.2 66451.5 68439.7 67752.7 66285.8 64368.8 64507.2 65817.6 66965.5 67564.8
          69030.9 68664.1 67991.9 67309.4 67286.2 67737.5 68233.1 68526.2 69477.8 69286.7 68968.6 68682.8
          68641.8 68811.1 69033.8 69177.9 69709 69589.7 69401 69239.5 69202.9 69286.2 69412.1 69498.6
        </DataArray>
        <DataArray type="Float32" Name="saturation" NumberOfComponents="1" format="ascii">
          0.371822 0.371611 0.37126 0.370905 0.370691 0.370686 0.370813 0.370927 0.371813 0.371595 0.371231 0.37086
          0.370638 0.37064 0.37078 0.370903 0.371832 0.371612 0.371245 0.370869 0.370646 0.370656 0.370805 0.370934
          0.371918 0.371715 0.371378 0.371038 0.370839 0.370848 0.370983 0.3711 0.372076 0.371906 0.371628 0.371354
          0.371199 0.371206 0.371313 0.371406 0.37227 0.372139 0.371929 0.371727 0.371617 0.371625 0.371703 0.371771
          0.372446 0.372347 0.372192 0.372047 0.371971 0.371979 0.372037 0.372086 0.372549 0.372468 0.372343 0.372229
          0.372171 0.37218 0.372226 0.372265 0.371004 0.370701 0.370192 0.369667 0.369358 0.369386 0.369613 0.369804
          0.370978 0.370658 0.370116 0.369548 0.369213 0.369262 0.369525 0.36974 0.370983 0.370654 0.370091 0.369496
          0.369146 0.369214 0.369507 0.36974 0.371084 0.370778 0.37026 0.369725 0.36942 0.369477 0.369737 0.369949
          0.371289 0.371034 0.370613 0.370195 0.36997 0.370014 0.370212 0.370375 0.371549 0.371356 0.371044 0.370748
          0.370599 0.370635 0.370774 0.370888 0.371786 0.371644 0.371422 0.371217 0.371121 0.37115 0.371248 0.371327
          0.371926 0.371813 0.371638 0.371482 0.371411 0.371437 0.371514 0.371575 0.369757 0.369257 0.368397 0.367481
          0.366948 0.367071 0.367544 0.367918 0.369689 0.369145 0.36819 0.367144 0.366523 0.366719 0.367307 0.367751
          0.369658 0.369079 0.368048 0.366889 0.366182 0.36646 0.367155 0.367663 0.369784 0.369241 0.368292 0.367266
          0.366682 0.366892 0.367493 0.367952 0.370083 0.369635 0.368876 0.368106 0.367719 0.367874 0.368308 0.368647
          0.370481 0.370149 0.369604 0.369086 0.368857 0.368973 0.369263 0.369488 0.370849 0.370613 0.37024 0.369903
          0.369768 0.369854 0.370047 0.370195 0.371067 0.370884 0.370601 0.370355 0.370262 0.370332 0.370478 0.370589
          0.368132 0.367319 0.365874 0.36427 0.36332 0.36366 0.364605 0.365307 0.367988 0.367071 0.365391 0.363419
          0.362179 0.362774 0.36405 0.364938 0.367883 0.366869 0.364958 0.362589 0.360955 0.361916 0.363563 0.364649
          0.368035 0.367075 0.365314 0.363275 0.362071 0.362691 0.364062 0.365046 0.368476 0.367685 0.366294 0.364828
          0.364159 0.364589 0.365514 0.366205 0.369089 0.368512 0.367546 0.366619 0.366279 0.366582 0.367166 0.367599
          0.369664 0.369268 0.368635 0.368071 0.367892 0.368099 0.368468 0.368738 0.370005 0.369709 0.369248 0.368856
          0.368741 0.368896 0.369164 0.369358 0.366265 0.365043 0.362805 0.360195 0.358587 0.359311 0.360981 0.362159
          0.36601 0.364584 0.361845 0.358353 0.35592 0.357414 0.359894 0.361485 0.365788 0.364146 0.360835 0.35614
          0.351922 0.355131 0.358741 0.360851 0.365958 0.364379 0.36131 0.35742 0.354959 0.356494 0.359379 0.361346
          0.366576 0.365264 0.362836 0.360102 0.359084 0.360112 0.361909 0.363204 0.367473 0.366533 0.364898 0.363279
          0.362869 0.363551 0.364621 0.365382 0.368325 0.367703 0.366687 0.36578 0.365584 0.366009 0.366649 0.367096
          0.36883 0.368379 0.367673 0.367082 0.366959 0.367255 0.367698 0.368006 0.364374 0.362727 0.359646 0.355931
          0.353557 0.354672 0.357135 0.358833 0.363999 0.36203 0.358123 0.352862 0.349036 0.351593 0.355473 0.357863
          0.36365 0.361304 0.356331 0.348574 0.341524 0.347423 0.353485 0.356872 0.36384 0.361534 0.356802 0.350245
          0.346202 0.34932 0.353944 0.357453 0.364654 0.362712 0.358871 0.353945 0.353002 0.355099 0.358054 0.360172
          0.365871 0.364499 0.361988 0.3593 0.359054 0.360357 0.362063 0.363224 0.367028 0.366153 0.36468 0.363333
          0.363191 0.363923 0.364889 0.365537 0.36771 0.367097 0.366123 0.365306 0.365199 0.365668 0.366307 0.366737
          0.362681 0.360676 0.356894 0.352253 0.349124 0.350346 0.353462 0.35562 0.362224 0.359808 0.354973 0.348379
          0.343383 0.346521 0.351534 0.354563 0.361806 0.358893 0.352628 0.34275 0.333552 0.341023 0.349288 0.353594
          0.362077 0.359186 0.35304 0.343858 0.337783 0.342446 0.3503 0.354616 0.36312 0.360703 0.355748 0.349045
          0.347773 0.350956 0.355324 0.357991 0.364629 0.362947 0.359743 0.355931 0.356015 0.357904 0.360198 0.361645
          0.366035 0.364991 0.363192 0.361481 0.361396 0.362367 0.363581 0.364368 0.366853 0.366137 0.364985 0.364006
          0.363904 0.364487 0.365257 0.365767 0.361331 0.359047 0.354705 0.349271 0.345232 0.346105 0.349838 0.352474
          0.360847 0.358098 0.35257 0.345008 0.338874 0.342137 0.348004 0.351537 0.360466 0.357173 0.350044 0.338941
          0.327922 0.336751 0.34627 0.351018 0.360948 0.357816 0.351155 0.341167 0.333243 0.340348 0.348626 0.352922
          0.362267 0.359772 0.354703 0.347833 0.34583 0.349574 0.354175 0.356847 0.363992 0.362322 0.359222 0.355819
          0.355227 0.357044 0.359367 0.360816 0.365517 0.36449 0.362744 0.361107 0.360842 0.361734 0.362932 0.363713
          0.366383 0.365678 0.364548 0.363577 0.363406 0.363938 0.364687 0.36519 0.360413 0.357945 0.353188 0.347043
          0.341827 0.34148 0.34608 0.349334 0.359963 0.357009 0.350985 0.342728 0.335525 0.337782 0.34443 0.348512
          0.359708 0.356211 0.348366 0.336869 0.3256 0.333605 0.343583 0.348565 0.360474 0.357416 0.351029 0.341977
          0.334503 0.340507 0.347784 0.351701 0.362045 0.359797 0.355441 0.350089 0.347403 0.350134 0.353982 0.356307
          0.363869 0.362418 0.359824 0.357087 0.35611 0.357362 0.359267 0.360508 0.365389 0.364498 0.363013 0.361616
          0.361192 0.361809 0.362788 0.363455 0.366232 0.365614 0.364629 0.363763 0.363513 0.36389 0.364504 0.364934
          0.359947 0.357454 0.352591 0.346037 0.339802 0.338117 0.34306 0.346771 0.359606 0.356716 0.350817 0.342354
          0.333895 0.333885 0.341104 0.345787 0.359546 0.356314 0.349357 0.3386 0.326948 0.331899 0.341013 0.346113
          0.360486 0.357744 0.352175 0.344481 0.338272 0.341459 0.347173 0.350685 0.36216 0.36023 0.356603 0.352285
          0.349721 0.351202 0.3541 0.356041 0.363976 0.362761 0.360636 0.358402 0.357334 0.35803 0.359448 0.360451
          0.365429 0.364687 0.363459 0.362281 0.361786 0.362139 0.362869 0.363401 0.366219 0.365701 0.364874 0.364122
          0.363826 0.364049 0.36451 0.364852 0.359743 0.35729 0.352455 0.345817 0.339434 0.337704 0.342046 0.345791
          0.359486 0.356679 0.350861 0.342178 0.333011 0.331818 0.339205 0.344598 0.359553 0.356482 0.349731 0.338729
          0.326149 0.328893 0.338629 0.345209 0.360573 0.358032 0.352824 0.345399 0.33948 0.341433 0.346734 0.350418
          0.362271 0.36054 0.357295 0.353389 0.350926 0.351837 0.354302 0.356102 0.364047 0.362987 0.361137 0.359167
          0.358106 0.358525 0.359673 0.360542 0.365436 0.364797 0.36374 0.362704 0.362199 0.362408 0.362982 0.363426
          0.366181 0.365737 0.365026 0.364362 0.364056 0.364186 0.364544 0.364823 0.359626 0.35725 0.35256 0.346138
          0.340267 0.339438 0.343352 0.346792 0.359408 0.356696 0.351025 0.342379 0.333449 0.333794 0.340688 0.345838
          0.359515 0.356565 0.350015 0.338687 0.325804 0.331698 0.341369 0.346949 0.360527 0.35809 0.353063 0.345796
          0.340002 0.342861 0.348154 0.351531 0.362201 0.36056 0.357476 0.353759 0.351466 0.352557 0.354977 0.356671
          0.363948 0.362959 0.361234 0.359401 0.35843 0.358868 0.359963 0.360778 0.365304 0.364718 0.36375 0.362801
          0.362337 0.362533 0.363063 0.363472 0.366028 0.365626 0.364982 0.364379 0.364095 0.364208 0.36453 0.364783
          0.359473 0.357192 0.352739 0.346839 0.342023 0.342576 0.346235 0.349062 0.359244 0.356627 0.351222 0.343247
          0.335799 0.33843 0.344543 0.348499 0.359303 0.356424 0.350139 0.339749 0.328259 0.335811 0.344795 0.34943
          0.360228 0.357765 0.352706 0.345647 0.340741 0.344574 0.349927 0.353034 0.361876 0.3602 0.357061 0.353402
          0.351557 0.35313 0.355705 0.357371 0.363638 0.362639 0.360907 0.359128 0.358357 0.359 0.360187 0.361014
          0.365012 0.364433 0.363483 0.36258 0.362205 0.362484 0.363055 0.363473 0.365744 0.365354 0.364735 0.36417
          0.363936 0.364088 0.364429 0.364686 0.359212 0.356972 0.352641 0.347062 0.343002 0.344712 0.348466 0.350998
          0.358917 0.356283 0.350852 0.342958 0.336183 0.340938 0.347104 0.350586 0.358841 0.355798 0.349075 0.337959
          0.32689 0.337709 0.346936 0.351233 0.359633 0.356844 0.350881 0.342371 0.339066 0.345072 0.351007 0.354106
          0.361307 0.35941 0.35577 0.351597 0.350567 0.353098 0.356077 0.357825 0.363157 0.36206 0.360146 0.358253
          0.357799 0.358819 0.360209 0.3611 0.364602 0.36399 0.36299 0.36208 0.361829 0.362255 0.362918 0.363372
          0.365368 0.364969 0.36434 0.36379 0.363617 0.363841 0.36423 0.364509 0.358886 0.35665 0.352359 0.346992
          0.343551 0.345741 0.349517 0.351924 0.358518 0.355808 0.350208 0.342255 0.336634 0.34213 0.348255 0.351551
          0.358298 0.354965 0.347357 0.33449 0.325391 0.338494 0.347857 0.352027 0.35896 0.355649 0.347847 0.334636
          0.335953 0.344746 0.351333 0.354508 0.360697 0.358491 0.354019 0.348613 0.348988 0.352655 0.356052 0.357901
          0.362657 0.361434 0.359251 0.357107 0.357035 0.358443 0.360026 0.36098 0.364177 0.363523 0.362447 0.361496
          0.361361 0.361921 0.362666 0.363153 0.364977 0.364563 0.363913 0.363362 0.363238 0.363521 0.363951 0.364249
        </DataArray>
        <DataArray type="Float32" Name="process rank" NumberOfComponents="1" format="ascii">
          0 0 0 0 0 0 0 0 0 0 0 0
          0 0 0 0 0 0 0 0 0 0 0 0
          0 0 0 0 0 0 0 0 0 0 0 0
          0 0 0 0 0 0 0 0 0 0 0 0
          0 0 0 0 0 0 0 0 0 0 0 0
          0 0 0 0 0 0 0 0 0 0 0 0
          0 0 0 0 0 0 0 0 0 0 0 0
          0 0 0 0 0 0 0 0 0 0 0 0
          0 0 0 0 0 0 0 0 0 0 0 0
          0 0 0 0 0 0 0 0 0 0 0 0
          0 0 0 0 0 0 0 0 0 0 0 0
          0 0 0 0 0 0 0 0 0 0 0 0
          0 0 0 0 0 0 0 0 0 0 0 0
          0 0 0 0 0 0 0 0 0 0 0 0
          0 0 0 0 0 0 0 0 0 0 0 0
          0 0 0 0 0 0 0 0 0 0 0 0
          0 0 0 0 0 0 0 0 0 0 0 0
          0 0 0 0 0 0 0 0 0 0 0 0
          0 0 0 0 0 0 0 0 0 0 0 0
          0 0 0 0 0 0 0 0 0 0 0 0
          0 0 0 0 0 0 0 0 0 0 0 0
          0 0 0 0 0 0 0 0 0 0 0 0
          0 0 0 0 0 0 0 0 0 0 0 0
          0 0 0 0 0 0 0 0 0 0 0 0
          0 0 0 0 0 0 0 0 0 0 0 0
          0 0 0 0 0 0 0 0 0 0 0 0
          0 0 0 0 0 0 0 0 0 0 0 0
          0 0 0 0 0 0 0 0 0 0 0 0
          0 0 0 0 0 0 0 0 0 0 0 0
          0 0 0 0 0 0 0 0 0 0 0 0
          0 0 0 0 0 0 0 0 0 0 0 0
          0 0 0 0 0 0 0 0 0 0 0 0
          0 0 0 0 0 0 0 0 0 0 0 0
          0 0 0 0 0 0 0 0 0 0 0 0
          0 0 0 0 0 0 0 0 0 0 0 0
          0 0 0 0 0 0 0 0 0 0 0 0
          0 0 0 0 0 0 0 0 0 0 0 0
          0 0 0 0 0 0 0 0 0 0 0 0
          0 0 0 0 0 0 0 0 0 0 0 0
          0 0 0 0 0 0 0 0 0 0 0 0
          0 0 0 0 0 0 0 0 0 0 0 0
          0 0 0 0 0 0 0 0 0 0 0 0
          0 0 0 0 0 0 0 0 0 0 0 0
          0 0 0 0 0 0 0 0 0 0 0 0
          0 0 0 0 0 0 0 0 0 0 0 0
          0 0 0 0 0 0 0 0 0 0 0 0
          0 0 0 0 0 0 0 0 0 0 0 0
          0 0 0 0 0 0 0 0 0 0 0 0
          0 0 0 0 0 0 0 0 0 0 0 0
          0 0 0 0 0 0 0 0 0 0 0 0
          0 0 0 0 0 0 0 0 0 0 0 0
          0 0 0 0 0 0 0 0 0 0 0 0
          0 0 0 0 0 0 0 0 0 0 0 0
          0 0 0 0 0 0 0 0 0 0 0 0
          0 0 0 0 0 0 0 0 0 0 0 0
          0 0 0 0 0 0 0 0 0 0 0 0
          0 0 0 0 0 0 0 0 0 0 0 0
          0 0 0 0 0 0 0 0 0 0 0 0
          0 0 0 0 0 0 0 0 0 0 0 0
          0 0 0 0 0 0 0 0 0 0 0 0
          0 0 0 0 0 0 0 0 0 0 0 0
          0 0 0 0 0 0 0 0 0 0 0 0
          0 0 0 0 0 0 0 0 0 0 0 0
          0 0 0 0 0 0 0 0 0 0 0 0
          0 0 0 0 0 0 0 0 0 0 0 0
          0 0 0 0 0 0 0 0 0 0 0 0
          0 0 0 0 0 0 0 0 0 0 0 0
          0 0 0 0 0 0 0 0 0 0 0 0
          0 0 0 0 0 0 0 0 0 0 0 0
          0 0 0 0 0 0 0 0 0 0 0 0
          0 0 0 0 0 0 0 0 0 0 0 0
          0 0 0 0 0 0 0 0 0 0 0 0
          0 0 0 0 0 0 0 0 0 0 0 0
          0 0 0 0 0 0 0 0 0 0 0 0
          0 0 0 0 0 0 0 0 0 0 0 0
          0 0 0 0 0 0 0 0 0 0 0 0
          0 0 0 0 0 0 0 0 0 0 0 0
          0 0 0 0 0 0 0 0 0 0 0 0
          0 0 0 0 0 0 0 0 0 0 0 0
          0 0 0 0 0 0 0 0 0 0 0 0
        </DataArray>
      </CellData>
      <Points>
        <DataArray type="Float32" Name="Coordinates" NumberOfComponents="3" format="ascii">
          -0.04 -0.04 -0.15 -0.03 -0.04 -0.15 -0.04 -0.03 -0.15 -0.03 -0.03 -0.15
          -0.04 -0.04 -0.14 -0.03 -0.04 -0.14 -0.04 -0.03 -0.14 -0.03 -0.03 -0.14
          -0.02 -0.04 -0.15 -0.02 -0.03 -0.15 -0.02 -0.04 -0.14 -0.02 -0.03 -0.14
          -0.01 -0.04 -0.15 -0.01 -0.03 -0.15 -0.01 -0.04 -0.14 -0.01 -0.03 -0.14
          0 -0.04 -0.15 0 -0.03 -0.15 0 -0.04 -0.14 0 -0.03 -0.14
          0.01 -0.04 -0.15 0.01 -0.03 -0.15 0.01 -0.04 -0.14 0.01 -0.03 -0.14
          0.02 -0.04 -0.15 0.02 -0.03 -0.15 0.02 -0.04 -0.14 0.02 -0.03 -0.14
          0.03 -0.04 -0.15 0.03 -0.03 -0.15 0.03 -0.04 -0.14 0.03 -0.03 -0.14
          0.04 -0.04 -0.15 0.04 -0.03 -0.15 0.04 -0.04 -0.14 0.04 -0.03 -0.14
          -0.04 -0.02 -0.15 -0.03 -0.02 -0.15 -0.04 -0.02 -0.14 -0.03 -0.02 -0.14
          -0.02 -0.02 -0.15 -0.02 -0.02 -0.14 -0.01 -0.02 -0.15 -0.01 -0.02 -0.14
          0 -0.02 -0.15 0 -0.02 -0.14 0.01 -0.02 -0.15 0.01 -0.02 -0.14
          0.02 -0.02 -0.15 0.02 -0.02 -0.14 0.03 -0.02 -0.15 0.03 -0.02 -0.14
          0.04 -0.02 -0.15 0.04 -0.02 -0.14 -0.04 -0.01 -0.15 -0.03 -0.01 -0.15
          -0.04 -0.01 -0.14 -0.03 -0.01 -0.14 -0.02 -0.01 -0.15 -0.02 -0.01 -0.14
          -0.01 -0.01 -0.15 -0.01 -0.01 -0.14 0 -0.01 -0.15 0 -0.01 -0.14
          0.01 -0.01 -0.15 0.01 -0.01 -0.14 0.02 -0.01 -0.15 0.02 -0.01 -0.14
          0.03 -0.01 -0.15 0.03 -0.01 -0.14 0.04 -0.01 -0.15 0.04 -0.01 -0.14
          -0.04 0 -0.15 -0.03 0 -0.15 -0.04 0 -0.14 -0.03 0 -0.14
          -0.02 0 -0.15 -0.02 0 -0.14 -0.01 0 -0.15 -0.01 0 -0.14
          0 0 -0.15 0 0 -0.14 0.01 0 -0.15 0.01 0 -0.14
          0.02 0 -0.15 0.02 0 -0.14 0.03 0 -0.15 0.03 0 -0.14
          0.04 0 -0.15 0.04 0 -0.14 -0.04 0.01 -0.15 -0.03 0.01 -0.15
          -0.04 0.01 -0.14 -0.03 0.01 -0.14 -0.02 0.01 -0.15 -0.02 0.01 -0.14
          -0.01 0.01 -0.15 -0.01 0.01 -0.14 0 0.01 -0.15 0 0.01 -0.14
          0.01 0.01 -0.15 0.01 0.01 -0.14 0.02 0.01 -0.15 0.02 0.01 -0.14
          0.03 0.01 -0.15 0.03 0.01 -0.14 0.04 0.01 -0.15 0.04 0.01 -0.14
          -0.04 0.02 -0.15 -0.03 0.02 -0.15 -0.04 0.02 -0.14 -0.03 0.02 -0.14
          -0.02 0.02 -0.15 -0.02 0.02 -0.14 -0.01 0.02 -0.15 -0.01 0.02 -0.14
          0 0.02 -0.15 0 0.02 -0.14 0.01 0.02 -0.15 0.01 0.02 -0.14
          0.02 0.02 -0.15 0.02 0.02 -0.14 0.03 0.02 -0.15 0.03 0.02 -0.14
          0.04 0.02 -0.15 0.04 0.02 -0.14 -0.04 0.03 -0.15 -0.03 0.03 -0.15
          -0.04 0.03 -0.14 -0.03 0.03 -0.14 -0.02 0.03 -0.15 -0.02 0.03 -0.14
          -0.01 0.03 -0.15 -0.01 0.03 -0.14 0 0.03 -0.15 0 0.03 -0.14
          0.01 0.03 -0.15 0.01 0.03 -0.14 0.02 0.03 -0.15 0.02 0.03 -0.14
          0.03 0.03 -0.15 0.03 0.03 -0.14 0.04 0.03 -0.15 0.04 0.03 -0.14
          -0.04 0.04 -0.15 -0.03 0.04 -0.15 -0.04 0.04 -0.14 -0.03 0.04 -0.14
          -0.02 0.04 -0.15 -0.02 0.04 -0.14 -0.01 0.04 -0.15 -0.01 0.04 -0.14
          0 0.04 -0.15 0 0.04 -0.14 0.01 0.04 -0.15 0.01 0.04 -0.14
          0.02 0.04 -0.15 0.02 0.04 -0.14 0.03 0.04 -0.15 0.03 0.04 -0.14
          0.04 0.04 -0.15 0.04 0.04 -0.14 -0.04 -0.04 -0.13 -0.03 -0.04 -0.13
          -0.04 -0.03 -0.13 -0.03 -0.03 -0.13 -0.02 -0.04 -0.13 -0.02 -0.03 -0.13
          -0.01 -0.04 -0.13 -0.01 -0.03 -0.13 0 -0.04 -0.13 0 -0.03 -0.13
          0.01 -0.04 -0.13 0.01 -0.03 -0.13 0.02 -0.04 -0.13 0.02 -0.03 -0.13
          0.03 -0.04 -0.13 0.03 -0.03 -0.13 0.04 -0.04 -0.13 0.04 -0.03 -0.13
          -0.04 -0.02 -0.13 -0.03 -0.02 -0.13 -0.02 -0.02 -0.13 -0.01 -0.02 -0.13
          0 -0.02 -0.13 0.01 -0.02 -0.13 0.02 -0.02 -0.13 0.03 -0.02 -0.13
          0.04 -0.02 -0.13 -0.04 -0.01 -0.13 -0.03 -0.01 -0.13 -0.02 -0.01 -0.13
          -0.01 -0.01 -0.13 0 -0.01 -0.13 0.01 -0.01 -0.13 0.02 -0.01 -0.13
          0.03 -0.01 -0.13 0.04 -0.01 -0.13 -0.04 0 -0.13 -0.03 0 -0.13
          -0.02 0 -0.13 -0.01 0 -0.13 0 0 -0.13 0.01 0 -0.13
          0.02 0 -0.13 0.03 0 -0.13 0.04 0 -0.13 -0.04 0.01 -0.13
          -0.03 0.01 -0.13 -0.02 0.01 -0.13 -0.01 0.01 -0.13 0 0.01 -0.13
          0.01 0.01 -0.13 0.02 0.01 -0.13 0.03 0.01 -0.13 0.04 0.01 -0.13
          -0.04 0.02 -0.13 -0.03 0.02 -0.13 -0.02 0.02 -0.13 -0.01 0.02 -0.13
          0 0.02 -0.13 0.01 0.02 -0.13 0.02 0.02 -0.13 0.03 0.02 -0.13
          0.04 0.02 -0.13 -0.04 0.03 -0.13 -0.03 0.03 -0.13 -0.02 0.03 -0.13
          -0.01 0.03 -0.13 0 0.03 -0.13 0.01 0.03 -0.13 0.02 0.03 -0.13
          0.03 0.03 -0.13 0.04 0.03 -0.13 -0.04 0.04 -0.13 -0.03 0.04 -0.13
          -0.02 0.04 -0.13 -0.01 0.04 -0.13 0 0.04 -0.13 0.01 0.04 -0.13
          0.02 0.04 -0.13 0.03 0.04 -0.13 0.04 0.04 -0.13 -0.04 -0.04 -0.12
          -0.03 -0.04 -0.12 -0.04 -0.03 -0.12 -0.03 -0.03 -0.12 -0.02 -0.04 -0.12
          -0.02 -0.03 -0.12 -0.01 -0.04 -0.12 -0.01 -0.03 -0.12 0 -0.04 -0.12
          0 -0.03 -0.12 0.01 -0.04 -0.12 0.01 -0.03 -0.12 0.02 -0.04 -0.12
          0.02 -0.03 -0.12 0.03 -0.04 -0.12 0.03 -0.03 -0.12 0.04 -0.04 -0.12
          0.04 -0.03 -0.12 -0.04 -0.02 -0.12 -0.03 -0.02 -0.12 -0.02 -0.02 -0.12
          -0.01 -0.02 -0.12 0 -0.02 -0.12 0.01 -0.02 -0.12 0.02 -0.02 -0.12
          0.03 -0.02 -0.12 0.04 -0.02 -0.12 -0.04 -0.01 -0.12 -0.03 -0.01 -0.12
          -0.02 -0.01 -0.12 -0.01 -0.01 -0.12 0 -0.01 -0.12 0.01 -0.01 -0.12
          0.02 -0.01 -0.12 0.03 -0.01 -0.12 0.04 -0.01 -0.12 -0.04 0 -0.12
          -0.03 0 -0.12 -0.02 0 -0.12 -0.01 0 -0.12 0 0 -0.12
          0.01 0 -0.12 0.02 0 -0.12 0.03 0 -0.12 0.04 0 -0.12
          -0.04 0.01 -0.12 -0.03 0.01 -0.12 -0.02 0.01 -0.12 -0.01 0.01 -0.12
          0 0.01 -0.12 0.01 0.01 -0.12 0.02 0.01 -0.12 0.03 0.01 -0.12
          0.04 0.01 -0.12 -0.04 0.02 -0.12 -0.03 0.02 -0.12 -0.02 0.02 -0.12
          -0.01 0.02 -0.12 0 0.02 -0.12 0.01 0.02 -0.12 0.02 0.02 -0.12
          0.03 0.02 -0.12 0.04 0.02 -0.12 -0.04 0.03 -0.12 -0.03 0.03 -0.12
          -0.02 0.03 -0.12 -0.01 0.03 -0.12 0 0.03 -0.12 0.01 0.03 -0.12
          0.02 0.03 -0.12 0.03 0.03 -0.12 0.04 0.03 -0.12 -0.04 0.04 -0.12
          -0.03 0.04 -0.12 -0.02 0.04 -0.12 -0.01 0.04 -0.12 0 0.04 -0.12
          0.01 0.04 -0.12 0.02 0.04 -0.12 0.03 0.04 -0.12 0.04 0.04 -0.12
          -0.04 -0.04 -0.11 -0.03 -0.04 -0.11 -0.04 -0.03 -0.11 -0.03 -0.03 -0.11
          -0.02 -0.04 -0.11 -0.02 -0.03 -0.11 -0.01 -0.04 -0.11 -0.01 -0.03 -0.11
          0 -0.04 -0.11 0 -0.03 -0.11 0.01 -0.04 -0.11 0.01 -0.03 -0.11
          0.02 -0.04 -0.11 0.02 -0.03 -0.11 0.03 -0.04 -0.11 0.03 -0.03 -0.11
          0.04 -0.04 -0.11 0.04 -0.03 -0.11 -0.04 -0.02 -0.11 -0.03 -0.02 -0.11
          -0.02 -0.02 -0.11 -0.01 -0.02 -0.11 0 -0.02 -0.11 0.01 -0.02 -0.11
          0.02 -0.02 -0.11 0.03 -0.02 -0.11 0.04 -0.02 -0.11 -0.04 -0.01 -0.11
          -0.03 -0.01 -0.11 -0.02 -0.01 -0.11 -0.01 -0.01 -0.11 0 -0.01 -0.11
          0.01 -0.01 -0.11 0.02 -0.01 -0.11 0.03 -0.01 -0.11 0.04 -0.01 -0.11
          -0.04 0 -0.11 -0.03 0 -0.11 -0.02 0 -0.11 -0.01 0 -0.11
          0 0 -0.11 0.01 0 -0.11 0.02 0 -0.11 0.03 0 -0.11
          0.04 0 -0.11 -0.04 0.01 -0.11 -0.03 0.01 -0.11 -0.02 0.01 -0.11
          -0.01 0.01 -0.11 0 0.01 -0.11 0.01 0.01 -0.11 0.02 0.01 -0.11
          0.03 0.01 -0.11 0.04 0.01 -0.11 -0.04 0.02 -0.11 -0.03 0.02 -0.11
          -0.02 0.02 -0.11 -0.01 0.02 -0.11 0 0.02 -0.11 0.01 0.02 -0.11
          0.02 0.02 -0.11 0.03 0.02 -0.11 0.04 0.02 -0.11 -0.04 0.03 -0.11
          -0.03 0.03 -0.11 -0.02 0.03 -0.11 -0.01 0.03 -0.11 0 0.03 -0.11
          0.01 0.03 -0.11 0.02 0.03 -0.11 0.03 0.03 -0.11 0.04 0.03 -0.11
          -0.04 0.04 -0.11 -0.03 0.04 -0.11 -0.02 0.04 -0.11 -0.01 0.04 -0.11
          0 0.04 -0.11 0.01 0.04 -0.11 0.02 0.04 -0.11 0.03 0.04 -0.11
          0.04 0.04 -0.11 -0.04 -0.04 -0.1 -0.03 -0.04 -0.1 -0.04 -0.03 -0.1
          -0.03 -0.03 -0.1 -0.02 -0.04 -0.1 -0.02 -0.03 -0.1 -0.01 -0.04 -0.1
          -0.01 -0.03 -0.1 0 -0.04 -0.1 0 -0.03 -0.1 0.01 -0.04 -0.1
          0.01 -0.03 -0.1 0.02 -0.04 -0.1 0.02 -0.03 -0.1 0.03 -0.04 -0.1
          0.03 -0.03 -0.1 0.04 -0.04 -0.1 0.04 -0.03 -0.1 -0.04 -0.02 -0.1
          -0.03 -0.02 -0.1 -0.02 -0.02 -0.1 -0.01 -0.02 -0.1 0 -0.02 -0.1
          0.01 -0.02 -0.1 0.02 -0.02 -0.1 0.03 -0.02 -0.1 0.04 -0.02 -0.1
          -0.04 -0.01 -0.1 -0.03 -0.01 -0.1 -0.02 -0.01 -0.1 -0.01 -0.01 -0.1
          0 -0.01 -0.1 0.01 -0.01 -0.1 0.02 -0.01 -0.1 0.03 -0.01 -0.1
          0.04 -0.01 -0.1 -0.04 0 -0.1 -0.03 0 -0.1 -0.02 0 -0.1
          -0.01 0 -0.1 0 0 -0.1 0.01 0 -0.1 0.02 0 -0.1
          0.03 0 -0.1 0.04 0 -0.1 -0.04 0.01 -0.1 -0.03 0.01 -0.1
          -0.02 0.01 -0.1 -0.01 0.01 -0.1 0 0.01 -0.1 0.01 0.01 -0.1
          0.02 0.01 -0.1 0.03 0.01 -0.1 0.04 0.01 -0.1 -0.04 0.02 -0.1
          -0.03 0.02 -0.1 -0.02 0.02 -0.1 -0.01 0.02 -0.1 0 0.02 -0.1
          0.01 0.02 -0.1 0.02 0.02 -0.1 0.03 0.02 -0.1 0.04 0.02 -0.1
          -0.04 0.03 -0.1 -0.03 0.03 -0.1 -0.02 0.03 -0.1 -0.01 0.03 -0.1
          0 0.03 -0.1 0.01 0.03 -0.1 0.02 0.03 -0.1 0.03 0.03 -0.1
          0.04 0.03 -0.1 -0.04 0.04 -0.1 -0.03 0.04 -0.1 -0.02 0.04 -0.1