<?xml version="1.0"?>
<VTKFile type="UnstructuredGrid" version="0.1" byte_order="LittleEndian">
  <UnstructuredGrid>
    <Piece NumberOfCells="960" NumberOfPoints="1296">
      <CellData Scalars="p (Pa)">
        <DataArray type="Float32" Name="p (Pa)" NumberOfComponents="1" format="ascii">
          -192175 -194870 -199585 -205017 -209409 -211431 -211534 -211091 -191612 -194415 -199355 -205097
          -209710 -211590 -211380 -210716 -190180 -193030 -198081 -203998 -208738 -210458 -209938 -209055
          -187645 -190303 -194966 -200338 -204595 -206318 -205937 -205137 -184257 -186538 -190475 -194884
          -198289 -199812 -199740 -199242 -180656 -182507 -185647 -189082 -191705 -192989 -193156 -192938
          -177648 -179141 -181647 -184354 -186444 -187560 -187866 -187828 -175937 -177231 -179392 -181721
          -183548 -184584 -184953 -184999 -199418 -203012 -209394 -216856 -222691 -224495 -223501 -222213
          -199057 -202927 -209918 -218304 -224910 -226285 -224433 -222582 -197780 -201867 -209367 -218617
          -226077 -226999 -224192 -221699 -195065 -198896 -205794 -213998 -220383 -221979 -219734 -217428
          -191166 -194421 -200122 -206534 -211080 -212460 -211256 -209781 -186865 -189429 -193797 -198481
          -201637 -202713 -202215 -201444 -183205 -185190 -188501 -191959 -194311 -195237 -195134 -194778
          -181105 -182769 -185515 -188360 -190352 -191230 -191307 -191135 -213730 -219317 -229510 -241863
          -251347 -252183 -248207 -244788 -213895 -220243 -232233 -247658 -260134 -259141 -252300 -247178
          -213096 -220208 -234137 -253365 -270577 -267011 -256222 -248782 -210074 -216787 -229476 -245665
          -258583 -260010 -251366 -244189 -205122 -210802 -221120 -233067 -240233 -241037 -236453 -232089
          -199293 -203614 -211122 -219087 -223146 -223392 -221073 -218808 -194188 -197343 -202618 -207909
          -210636 -210892 -209724 -208567 -191226 -193739 -197845 -201873 -204098 -204474 -203813 -203120
          -235046 -244069 -261144 -283069 -300309 -298042 -287527 -279821 -236288 -247214 -269188 -300743
          -329231 -319001 -299196 -286622 -236626 -249809 -278260 -325823 -381904 -352789 -315566 -294752
          -233274 -245835 -271318 -307706 -339256 -344156 -313601 -291446 -226676 -237466 -258505 -285098
          -295533 -294542 -281326 -269333 -218203 -226156 -240698 -256726 -260627 -258048 -251625 -245969
          -210545 -215984 -225304 -234526 -237066 -235351 -231921 -229136 -206068 -210142 -216830 -223108
          -225328 -224395 -222243 -220555 -262709 -276755 -304359 -342176 -373274 -364183 -342185 -327421
          -265764 -283932 -323145 -387596 -456044 -416518 -368646 -341994 -268261 -292133 -350672 -483544
          -750507 -542860 -417277 -364267 -264719 -287877 -339397 -424986 -504531 -561132 -440220 -369283
          -255922 -276721 -322786 -395969 -394368 -387431 -356603 -324984 -243327 -258204 -288277 -327011
          -321025 -309426 -295385 -282806 -231633 -241086 -258247 -276162 -275428 -268600 -261046 -255389
          -224798 -231400 -242526 -252885 -254064 -250237 -245492 -242192 -294798 -314746 -354678 -410698
          -453359 -441720 -407962 -384888 -300157 -327194 -387788 -492123 -566140 -522452 -451073 -408123
          -305578 -343785 -445930 -720519 -824428 -723730 -549061 -449983 -301982 -340838 -435981 -617513
          -693479 -691190 -720822 -480031 -290451 -327851 -429169 -711792 -544503 -490980 -474639 -393677
          -272253 -298298 -360125 -478525 -408837 -370178 -347583 -323721 -255118 -270408 -300817 -337963
          -324358 -306548 -293005 -283422 -245211 -255146 -272669 -289729 -287629 -278784 -270419 -265077
          -328215 -353641 -403920 -473386 -530123 -526188 -480532 -448592 -335558 -370158 -444978 -563240
          -645556 -606196 -523322 -472257 -343025 -392555 -516496 -775421 -838424 -775764 -607935 -509564
          -337975 -391340 -529471 -823375 -878084 -829340 -676318 -514798 -321860 -372097 -509185 -819530
          -678697 -572612 -490212 -424808 -298007 -333967 -430932 -699938 -496538 -419500 -377000 -350563
          -275819 -295965 -339166 -401480 -368536 -338101 -317470 -305562 -263213 -275730 -298656 -322427
          -316559 -303002 -291385 -284590 -359855 -390805 -451189 -532994 -616418 -650176 -573448 -523057
          -368890 -411533 -499946 -617929 -720129 -711160 -603874 -541553 -376803 -438207 -583053 -773624
          -839346 -856969 -656253 -560767 -364398 -421708 -558251 -793140 -848955 -813092 -613716 -517536
          -340526 -388928 -512454 -793126 -701456 -574277 -480877 -432151 -311728 -343059 -412982 -522205
          -482801 -426745 -385227 -362610 -287716 -305800 -340759 -381045 -371818 -348945 -329622 -318669
          -274477 -286226 -306782 -326682 -325796 -314934 -304080 -297615 -385518 -422367 -495757 -595761
          -727293 -858699 -701872 -612489 -395987 -450220 -569469 -694297 -812120 -854384 -710460 -631463
          -403902 -490982 -766155 -851360 -847480 -868946 -719179 -644611 -379100 -437227 -570544 -734161
          -836258 -728756 -596790 -538177 -346024 -383512 -462988 -575008 -596619 -530853 -468919 -437306
          -314782 -337462 -381385 -434171 -438271 -410413 -382729 -367106 -291352 -304885 -328932 -353796
          -356864 -345363 -332360 -324448 -278870 -288165 -303737 -318531 -321859 -316363 -308951 -304152
          -398723 -435550 -509471 -620152 -777478 -902145 -792299 -690638 -405589 -454654 -557216 -697770
          -860351 -896703 -822887 -739578 -405799 -471229 -624431 -802728 -846524 -904645 -802435 -812022
          -378403 -425012 -523897 -656781 -723101 -672245 -604780 -580080 -343430 -371927 -427493 -496272
          -523107 -496167 -462548 -444535 -312563 -329260 -359512 -392945 -404606 -393581 -377918 -368199
          -290513 -300598 -317855 -335391 -342096 -338009 -330636 -325603 -279047 -286190 -297996 -309518
          -314630 -313123 -309015 -305970 -402785 -438867 -512476 -621883 -758469 -879487 -800864 -710262
          -407108 -455472 -563114 -716192 -869817 -903772 -891504 -759775 -403868 -470865 -665300 -866107
          -851685 -856434 -848279 -751928 -374870 -420336 -530107 -734163 -699116 -661292 -612656 -562816
          -339410 -364844 -416607 -486276 -497317 -481269 -456753 -437150 -309246 -323201 -348628 -377326
          -387730 -382777 -372203 -364111 -288289 -296493 -310525 -325127 -332285 -331464 -327020 -323420
          -277568 -283380 -293026 -302797 -308358 -308892 -306745 -304785 -400283 -433447 -501578 -605535
          -726300 -814486 -770440 -683706 -401492 -443471 -536822 -692083 -847334 -888892 -867610 -719944
          -394257 -446037 -577539 -827889 -837176 -890366 -767308 -649051 -367483 -405328 -493728 -659476
          -664175 -636671 -568232 -517898 -334489 -356445 -400655 -460318 -476821 -464736 -438401 -418995
          -305983 -318140 -340234 -365391 -376334 -373254 -363512 -355954 -286072 -293218 -305461 -318406
          -325537 -325750 -322240 -319179 -275889 -280954 -289403 -298153 -303649 -304883 -303514 -302024
          -396123 -426413 -488458 -583139 -689454 -720495 -668854 -613900 -395305 -431606 -510767 -644469
          -808263 -825838 -716800 -622995 -386098 -427039 -522433 -694924 -838671 -855429 -669517 -572490
          -361879 -393718 -462435 -568534 -632792 -606439 -526265 -479824 -331320 -351037 -389341 -437962
          -462096 -449786 -420619 -401552 -304073 -315367 -335614 -358203 -369384 -365732 -355212 -347612
          -284731 -291429 -302855 -314841 -321528 -321420 -317736 -314689 -274779 -279519 -287418 -295577
          -300700 -301784 -300421 -298989 -393906 -423456 -484660 -580167 -686193 -662151 -601691 -560726
          -393113 -428804 -508401 -651713 -845932 -749192 -625569 -559518 -384741 -425754 -522478 -700947
          -834551 -803941 -605359 -524508 -362482 -397227 -475914 -604229 -640215 -580928 -496617 -453936
          -332087 -353722 -397068 -452701 -465479 -440639 -407901 -388906 -304361 -316446 -338410 -362518
          -369848 -361768 -349348 -341341 -284621 -291547 -303385 -315489 -320810 -319103 -314560 -311238
          -274485 -279252 -287170 -295160 -299639 -300005 -298210 -296616 -393520 -423084 -483423 -571627
          -647555 -619391 -566471 -533041 -393769 -431036 -514133 -653443 -763750 -674273 -578248 -527965
          -387714 -435362 -556859 -808568 -834811 -700469 -559659 -498137 -366949 -411591 -531014 -816516
          -682769 -560462 -478086 -439735 -335010 -361396 -419230 -503931 -482549 -437338 -401036 -382128
          -305746 -319538 -345653 -375139 -375124 -360956 -346484 -338052 -285147 -292607 -305526 -318561
          -322097 -318507 -313063 -309452 -274663 -279604 -287815 -295923 -299783 -299403 -297163 -295393
        </DataArray>
        <DataArray type="Float32" Name="saturation" NumberOfComponents="1" format="ascii">
          0.783004 0.782527 0.781702 0.780769 0.780027 0.77969 0.779673 0.779746 0.783105 0.782607 0.781742 0.780755
          0.779977 0.779663 0.779698 0.779809 0.783361 0.782852 0.781963 0.780943 0.78014 0.779852 0.779939 0.780087
          0.783818 0.783339 0.78251 0.781572 0.780841 0.780548 0.780613 0.780748 0.784436 0.784019 0.783308 0.782524
          0.781927 0.781663 0.781675 0.781761 0.785101 0.784758 0.784182 0.783559 0.783088 0.78286 0.78283 0.782869
          0.785664 0.785384 0.784917 0.784418 0.784036 0.783834 0.783778 0.783785 0.785987 0.785743 0.785337 0.784904
          0.784566 0.784376 0.784309 0.7843 0.781731 0.781111 0.78003 0.778796 0.777852 0.777564 0.777722 0.777928
          0.781794 0.781126 0.779942 0.77856 0.777498 0.77728 0.777574 0.777869 0.782016 0.781308 0.780034 0.778509
          0.777313 0.777167 0.777612 0.778011 0.782492 0.781822 0.780637 0.779265 0.778223 0.777966 0.778328 0.778702
          0.783185 0.782606 0.781609 0.780511 0.779748 0.779519 0.779719 0.779965 0.78396 0.783496 0.782716 0.781894
          0.781347 0.781162 0.781248 0.781381 0.78463 0.784265 0.783664 0.783043 0.782625 0.782462 0.78248 0.782543
          0.785018 0.78471 0.784206 0.783689 0.78333 0.783173 0.783159 0.78319 0.779309 0.778395 0.776772 0.774876
          0.773469 0.773347 0.77393 0.774437 0.779281 0.778246 0.776348 0.774011 0.772202 0.772344 0.77333 0.774082
          0.779414 0.778251 0.776053 0.773175 0.770739 0.771234 0.772762 0.773846 0.779916 0.778807 0.776777 0.774307
          0.772423 0.77222 0.773467 0.774527 0.780751 0.779795 0.778104 0.776218 0.775122 0.775 0.775697 0.77637
          0.781753 0.781008 0.779741 0.778432 0.777779 0.77774 0.778112 0.778478 0.782647 0.782092 0.781179 0.780279
          0.779822 0.77978 0.779975 0.780169 0.783174 0.782727 0.782005 0.781307 0.780925 0.780861 0.780974 0.781093
          0.775913 0.774545 0.772059 0.769046 0.766805 0.767093 0.768456 0.76948 0.775722 0.774077 0.770931 0.76675
          0.763269 0.76449 0.766946 0.768575 0.775671 0.773695 0.769691 0.763672 0.757448 0.760575 0.764907 0.767516
          0.776186 0.774282 0.770637 0.765875 0.762104 0.761545 0.765147 0.767944 0.777218 0.775542 0.772435 0.768776
          0.767415 0.767543 0.769279 0.770911 0.778576 0.7773 0.775051 0.77269 0.772132 0.7725 0.773429 0.774262
          0.779837 0.778938 0.777435 0.775993 0.775603 0.775866 0.776396 0.776831 0.78059 0.779905 0.7788 0.777785
          0.777431 0.77758 0.777924 0.778195 0.771837 0.769894 0.766293 0.76177 0.758353 0.759326 0.761769 0.763483
          0.771408 0.768931 0.763992 0.75686 0.750328 0.753986 0.758846 0.761791 0.77106 0.767854 0.760811 0.747946
          0.7297 0.743199 0.753913 0.759317 0.771554 0.76841 0.762088 0.753177 0.746209 0.741832 0.751757 0.758778
          0.772805 0.769899 0.764035 0.75601 0.756171 0.756877 0.760153 0.763772 0.774656 0.772478 0.768358 0.763532
          0.764246 0.765661 0.767434 0.769081 0.776441 0.774993 0.772471 0.769975 0.770074 0.771012 0.772073 0.772882
          0.777516 0.776477 0.774776 0.773245 0.773074 0.773632 0.774333 0.774826 0.76751 0.765007 0.760366 0.75455
          0.750567 0.75162 0.754818 0.757139 0.766824 0.76351 0.756841 0.747228 0.741464 0.744776 0.750772 0.754802
          0.766141 0.761587 0.751236 0.731412 0.725747 0.731226 0.74273 0.75087 0.766593 0.761923 0.752148 0.73786
          0.733016 0.733154 0.731395 0.748243 0.768073 0.763432 0.752783 0.731923 0.743074 0.747323 0.748704 0.756241
          0.770508 0.767061 0.759767 0.748371 0.754732 0.758682 0.761157 0.763923 0.772921 0.770762 0.76674 0.762253
          0.763847 0.766019 0.767741 0.768999 0.774375 0.772917 0.770451 0.768167 0.768443 0.76962 0.770761 0.771504
          0.763389 0.760481 0.755216 0.748811 0.744177 0.744483 0.748201 0.750996 0.76253 0.758684 0.751323 0.741677
          0.736009 0.738629 0.744708 0.748909 0.761673 0.756355 0.745247 0.728327 0.725037 0.728309 0.73851 0.745802
          0.762251 0.756478 0.744227 0.725801 0.723087 0.725496 0.734065 0.745382 0.764145 0.758478 0.745832 0.725998
          0.733918 0.740994 0.747387 0.753194 0.767098 0.762715 0.752618 0.732627 0.746862 0.753699 0.75796 0.760823
          0.770021 0.767359 0.762114 0.755458 0.758858 0.762237 0.764675 0.766143 0.771766 0.770033 0.767015 0.764077
          0.764786 0.766464 0.767952 0.768844 0.759797 0.756532 0.750762 0.743954 0.737934 0.735712 0.740934 0.744729
          0.75882 0.754469 0.746583 0.737832 0.731435 0.731961 0.738789 0.743298 0.757981 0.751943 0.740245 0.728425
          0.724991 0.724114 0.735323 0.741859 0.759303 0.753488 0.742045 0.727376 0.724511 0.72633 0.738117 0.745165
          0.761958 0.756724 0.74557 0.727377 0.732537 0.740874 0.748171 0.752504 0.765377 0.761669 0.754328 0.744796
          0.748009 0.753011 0.757104 0.759497 0.768431 0.766113 0.761932 0.757537 0.758507 0.761004 0.763223 0.76453
          0.770204 0.768627 0.76599 0.763571 0.763676 0.764984 0.766328 0.767148 0.757074 0.753426 0.746927 0.739351
          0.73102 0.724029 0.732512 0.7382 0.756008 0.750849 0.741222 0.732966 0.726381 0.724242 0.732002 0.73693
          0.755218 0.747322 0.728833 0.724391 0.724584 0.723529 0.73149 0.736071 0.75774 0.752033 0.741144 0.730625
          0.725146 0.730935 0.739279 0.743556 0.761333 0.757281 0.749715 0.740821 0.739291 0.74412 0.749197 0.752026
          0.765002 0.76231 0.757502 0.752316 0.751937 0.754578 0.757362 0.759011 0.767956 0.766227 0.763305 0.760463
          0.760125 0.761408 0.762902 0.763836 0.769608 0.768372 0.766372 0.764547 0.764146 0.76481 0.76572 0.766319
          0.755733 0.752188 0.745809 0.737683 0.728216 0.721946 0.727421 0.733188 0.755051 0.750452 0.742121 0.732757
          0.723948 0.722202 0.725826 0.730317 0.75503 0.748997 0.737396 0.72687 0.724632 0.721829 0.726886 0.726386
          0.757813 0.753175 0.744663 0.73529 0.731262 0.734317 0.738727 0.740457 0.761627 0.758496 0.75294 0.746884
          0.744725 0.746893 0.749753 0.751363 0.765274 0.763266 0.759834 0.756315 0.755148 0.756251 0.757864 0.758894
          0.768065 0.766768 0.764628 0.76255 0.761779 0.762247 0.763104 0.763699 0.769584 0.768632 0.767099 0.76565
          0.765021 0.765206 0.765712 0.766091 0.755328 0.751882 0.745568 0.737567 0.729257 0.72302 0.726968 0.732014
          0.754901 0.750379 0.741686 0.731665 0.723487 0.72187 0.722447 0.729184 0.755221 0.749029 0.734751 0.723667
          0.724375 0.724141 0.724544 0.729621 0.758184 0.753619 0.744178 0.730625 0.732677 0.735004 0.738189 0.741708
          0.762086 0.759255 0.753977 0.747716 0.746798 0.748138 0.750265 0.75204 0.765684 0.763985 0.76104 0.757926
          0.756847 0.757357 0.758467 0.759334 0.768356 0.767292 0.765525 0.763755 0.762911 0.763007 0.763531 0.763959
          0.769784 0.769004 0.767739 0.76649 0.765794 0.765728 0.765995 0.76624 0.755577 0.752383 0.746449 0.738675
          0.731077 0.726258 0.728598 0.73361 0.755457 0.75146 0.74366 0.7331 0.724591 0.722571 0.723594 0.731446
          0.756182 0.751227 0.740639 0.72557 0.7251 0.722501 0.72877 0.735784 0.75897 0.755077 0.747095 0.735119
          0.734822 0.736587 0.741312 0.745136 0.762654 0.760171 0.75554 0.749949 0.748517 0.749561 0.751925 0.753748
          0.76609 0.764594 0.761992 0.759196 0.75803 0.758355 0.759399 0.760225 0.768648 0.767714 0.766155 0.764562
          0.763706 0.763681 0.7641 0.764468 0.770012 0.769328 0.76821 0.767079 0.766383 0.766228 0.7664 0.766588
          0.755994 0.753042 0.747533 0.740239 0.733259 0.731414 0.734529 0.738104 0.756076 0.752555 0.745705 0.73608
          0.726581 0.725675 0.731629 0.737492 0.757014 0.752983 0.744778 0.732929 0.725025 0.72419 0.734487 0.741003
          0.759576 0.756237 0.749763 0.74129 0.736842 0.738613 0.744477 0.748261 0.763024 0.76077 0.756682 0.751965
          0.749793 0.750888 0.753592 0.755451 0.766329 0.764931 0.762524 0.759977 0.758767 0.759159 0.760307 0.761154
          0.768825 0.767946 0.766483 0.764995 0.764185 0.764198 0.764643 0.765014 0.770163 0.769521 0.76847 0.767409
          0.766755 0.766618 0.766791 0.766973 0.756218 0.753322 0.747852 0.740451 0.733458 0.73495 0.738939 0.741862
          0.756298 0.752817 0.745895 0.735613 0.724661 0.729774 0.737321 0.741951 0.757154 0.753105 0.744774 0.732567
          0.725232 0.726807 0.738687 0.744615 0.75951 0.755883 0.748594 0.738765 0.736356 0.740397 0.746856 0.750516
          0.762934 0.760472 0.755899 0.750626 0.749497 0.751719 0.754824 0.756726 0.766293 0.764799 0.762201 0.759506
          0.758717 0.759588 0.760959 0.761865 0.76884 0.767931 0.766416 0.764916 0.764272 0.764477 0.765029 0.765437
          0.770203 0.769557 0.768503 0.767463 0.76689 0.766843 0.767072 0.767276 0.756257 0.753358 0.747956 0.741065
          0.73588 0.737734 0.74144 0.743951 0.756232 0.752608 0.745436 0.735503 0.728965 0.734191 0.740588 0.744345
          0.756848 0.752205 0.742148 0.726565 0.725219 0.732596 0.741941 0.746731 0.759028 0.754463 0.744108 0.726153
          0.733667 0.741881 0.748409 0.751802 0.762594 0.759629 0.753725 0.746257 0.74803 0.752023 0.755502 0.757425
          0.76612 0.764425 0.761375 0.758156 0.758157 0.759676 0.761281 0.762242 0.76877 0.767793 0.766147 0.764543
          0.764117 0.764549 0.765213 0.765658 0.770178 0.769509 0.768418 0.767365 0.766872 0.76692 0.767206 0.767433
        </DataArray>
        <DataArray type="Float32" Name="process rank" NumberOfComponents="1" format="ascii">
          0 0 0 0 0 0 0 0 0 0 0 0
          0 0 0 0 0 0 0 0 0 0 0 0
          0 0 0 0 0 0 0 0 0 0 0 0
          0 0 0 0 0 0 0 0 0 0 0 0
          0 0 0 0 0 0 0 0 0 0 0 0
          0 0 0 0 0 0 0 0 0 0 0 0
          0 0 0 0 0 0 0 0 0 0 0 0
          0 0 0 0 0 0 0 0 0 0 0 0
          0 0 0 0 0 0 0 0 0 0 0 0
          0 0 0 0 0 0 0 0 0 0 0 0
          0 0 0 0 0 0 0 0 0 0 0 0
          0 0 0 0 0 0 0 0 0 0 0 0
          0 0 0 0 0 0 0 0 0 0 0 0
          0 0 0 0 0 0 0 0 0 0 0 0
          0 0 0 0 0 0 0 0 0 0 0 0
          0 0 0 0 0 0 0 0 0 0 0 0
          0 0 0 0 0 0 0 0 0 0 0 0
          0 0 0 0 0 0 0 0 0 0 0 0
          0 0 0 0 0 0 0 0 0 0 0 0
          0 0 0 0 0 0 0 0 0 0 0 0
          0 0 0 0 0 0 0 0 0 0 0 0
          0 0 0 0 0 0 0 0 0 0 0 0
          0 0 0 0 0 0 0 0 0 0 0 0
          0 0 0 0 0 0 0 0 0 0 0 0
          0 0 0 0 0 0 0 0 0 0 0 0
          0 0 0 0 0 0 0 0 0 0 0 0
          0 0 0 0 0 0 0 0 0 0 0 0
          0 0 0 0 0 0 0 0 0 0 0 0
          0 0 0 0 0 0 0 0 0 0 0 0
          0 0 0 0 0 0 0 0 0 0 0 0
          0 0 0 0 0 0 0 0 0 0 0 0
          0 0 0 0 0 0 0 0 0 0 0 0
          0 0 0 0 0 0 0 0 0 0 0 0
          0 0 0 0 0 0 0 0 0 0 0 0
          0 0 0 0 0 0 0 0 0 0 0 0
          0 0 0 0 0 0 0 0 0 0 0 0
          0 0 0 0 0 0 0 0 0 0 0 0
          0 0 0 0 0 0 0 0 0 0 0 0
          0 0 0 0 0 0 0 0 0 0 0 0
          0 0 0 0 0 0 0 0 0 0 0 0
          0 0 0 0 0 0 0 0 0 0 0 0
          0 0 0 0 0 0 0 0 0 0 0 0
          0 0 0 0 0 0 0 0 0 0 0 0
          0 0 0 0 0 0 0 0 0 0 0 0
          0 0 0 0 0 0 0 0 0 0 0 0
          0 0 0 0 0 0 0 0 0 0 0 0
          0 0 0 0 0 0 0 0 0 0 0 0
          0 0 0 0 0 0 0 0 0 0 0 0
          0 0 0 0 0 0 0 0 0 0 0 0
          0 0 0 0 0 0 0 0 0 0 0 0
          0 0 0 0 0 0 0 0 0 0 0 0
          0 0 0 0 0 0 0 0 0 0 0 0
          0 0 0 0 0 0 0 0 0 0 0 0
          0 0 0 0 0 0 0 0 0 0 0 0
          0 0 0 0 0 0 0 0 0 0 0 0
          0 0 0 0 0 0 0 0 0 0 0 0
          0 0 0 0 0 0 0 0 0 0 0 0
          0 0 0 0 0 0 0 0 0 0 0 0
          0 0 0 0 0 0 0 0 0 0 0 0
          0 0 0 0 0 0 0 0 0 0 0 0
          0 0 0 0 0 0 0 0 0 0 0 0
          0 0 0 0 0 0 0 0 0 0 0 0
          0 0 0 0 0 0 0 0 0 0 0 0
          0 0 0 0 0 0 0 0 0 0 0 0
          0 0 0 0 0 0 0 0 0 0 0 0
          0 0 0 0 0 0 0 0 0 0 0 0
          0 0 0 0 0 0 0 0 0 0 0 0
          0 0 0 0 0 0 0 0 0 0 0 0
          0 0 0 0 0 0 0 0 0 0 0 0
          0 0 0 0 0 0 0 0 0 0 0 0
          0 0 0 0 0 0 0 0 0 0 0 0
          0 0 0 0 0 0 0 0 0 0 0 0
          0 0 0 0 0 0 0 0 0 0 0 0
          0 0 0 0 0 0 0 0 0 0 0 0
          0 0 0 0 0 0 0 0 0 0 0 0
          0 0 0 0 0 0 0 0 0 0 0 0
          0 0 0 0 0 0 0 0 0 0 0 0
          0 0 0 0 0 0 0 0 0 0 0 0
          0 0 0 0 0 0 0 0 0 0 0 0
          0 0 0 0 0 0 0 0 0 0 0 0
        </DataArray>
      </CellData>
      <Points>
        <DataArray type="Float32" Name="Coordinates" NumberOfComponents="3" format="ascii">
          -0.04 -0.04 -0.15 -0.03 -0.04 -0.15 -0.04 -0.03 -0.15 -0.03 -0.03 -0.15
          -0.04 -0.04 -0.14 -0.03 -0.04 -0.14 -0.04 -0.03 -0.14 -0.03 -0.03 -0.14
          -0.02 -0.04 -0.15 -0.02 -0.03 -0.15 -0.02 -0.04 -0.14 -0.02 -0.03 -0.14
          -0.01 -0.04 -0.15 -0.01 -0.03 -0.15 -0.01 -0.04 -0.14 -0.01 -0.03 -0.14
          0 -0.04 -0.15 0 -0.03 -0.15 0 -0.04 -0.14 0 -0.03 -0.14
          0.01 -0.04 -0.15 0.01 -0.03 -0.15 0.01 -0.04 -0.14 0.01 -0.03 -0.14
          0.02 -0.04 -0.15 0.02 -0.03 -0.15 0.02 -0.04 -0.14 0.02 -0.03 -0.14
          0.03 -0.04 -0.15 0.03 -0.03 -0.15 0.03 -0.04 -0.14 0.03 -0.03 -0.14
          0.04 -0.04 -0.15 0.04 -0.03 -0.15 0.04 -0.04 -0.14 0.04 -0.03 -0.14
          -0.04 -0.02 -0.15 -0.03 -0.02 -0.15 -0.04 -0.02 -0.14 -0.03 -0.02 -0.14
          -0.02 -0.02 -0.15 -0.02 -0.02 -0.14 -0.01 -0.02 -0.15 -0.01 -0.02 -0.14
          0 -0.02 -0.15 0 -0.02 -0.14 0.01 -0.02 -0.15 0.01 -0.02 -0.14
          0.02 -0.02 -0.15 0.02 -0.02 -0.14 0.03 -0.02 -0.15 0.03 -0.02 -0.14
          0.04 -0.02 -0.15 0.04 -0.02 -0.14 -0.04 -0.01 -0.15 -0.03 -0.01 -0.15
          -0.04 -0.01 -0.14 -0.03 -0.01 -0.14 -0.02 -0.01 -0.15 -0.02 -0.01 -0.14
          -0.01 -0.01 -0.15 -0.01 -0.01 -0.14 0 -0.01 -0.15 0 -0.01 -0.14
          0.01 -0.01 -0.15 0.01 -0.01 -0.14 0.02 -0.01 -0.15 0.02 -0.01 -0.14
          0.03 -0.01 -0.15 0.03 -0.01 -0.14 0.04 -0.01 -0.15 0.04 -0.01 -0.14
          -0.04 0 -0.15 -0.03 0 -0.15 -0.04 0 -0.14 -0.03 0 -0.14
          -0.02 0 -0.15 -0.02 0 -0.14 -0.01 0 -0.15 -0.01 0 -0.14
          0 0 -0.15 0 0 -0.14 0.01 0 -0.15 0.01 0 -0.14
          0.02 0 -0.15 0.02 0 -0.14 0.03 0 -0.15 0.03 0 -0.14
          0.04 0 -0.15 0.04 0 -0.14 -0.04 0.01 -0.15 -0.03 0.01 -0.15
          -0.04 0.01 -0.14 -0.03 0.01 -0.14 -0.02 0.01 -0.15 -0.02 0.01 -0.14
          -0.01 0.01 -0.15 -0.01 0.01 -0.14 0 0.01 -0.15 0 0.01 -0.14
          0.01 0.01 -0.15 0.01 0.01 -0.14 0.02 0.01 -0.15 0.02 0.01 -0.14
          0.03 0.01 -0.15 0.03 0.01 -0.14 0.04 0.01 -0.15 0.04 0.01 -0.14
          -0.04 0.02 -0.15 -0.03 0.02 -0.15 -0.04 0.02 -0.14 -0.03 0.02 -0.14
          -0.02 0.02 -0.15 -0.02 0.02 -0.14 -0.01 0.02 -0.15 -0.01 0.02 -0.14
          0 0.02 -0.15 0 0.02 -0.14 0.01 0.02 -0.15 0.01 0.02 -0.14
          0.02 0.02 -0.15 0.02 0.02 -0.14 0.03 0.02 -0.15 0.03 0.02 -0.14
          0.04 0.02 -0.15 0.04 0.02 -0.14 -0.04 0.03 -0.15 -0.03 0.03 -0.15
          -0.04 0.03 -0.14 -0.03 0.03 -0.14 -0.02 0.03 -0.15 -0.02 0.03 -0.14
          -0.01 0.03 -0.15 -0.01 0.03 -0.14 0 0.03 -0.15 0 0.03 -0.14
          0.01 0.03 -0.15 0.01 0.03 -0.14 0.02 0.03 -0.15 0.02 0.03 -0.14
          0.03 0.03 -0.15 0.03 0.03 -0.14 0.04 0.03 -0.15 0.04 0.03 -0.14
          -0.04 0.04 -0.15 -0.03 0.04 -0.15 -0.04 0.04 -0.14 -0.03 0.04 -0.14
          -0.02 0.04 -0.15 -0.02 0.04 -0.14 -0.01 0.04 -0.15 -0.01 0.04 -0.14
          0 0.04 -0.15 0 0.04 -0.14 0.01 0.04 -0.15 0.01 0.04 -0.14
          0.02 0.04 -0.15 0.02 0.04 -0.14 0.03 0.04 -0.15 0.03 0.04 -0.14
          0.04 0.04 -0.15 0.04 0.04 -0.14 -0.04 -0.04 -0.13 -0.03 -0.04 -0.13
          -0.04 -0.03 -0.13 -0.03 -0.03 -0.13 -0.02 -0.04 -0.13 -0.02 -0.03 -0.13
          -0.01 -0.04 -0.13 -0.01 -0.03 -0.13 0 -0.04 -0.13 0 -0.03 -0.13
          0.01 -0.04 -0.13 0.01 -0.03 -0.13 0.02 -0.04 -0.13 0.02 -0.03 -0.13
          0.03 -0.04 -0.13 0.03 -0.03 -0.13 0.04 -0.04 -0.13 0.04 -0.03 -0.13
          -0.04 -0.02 -0.13 -0.03 -0.02 -0.13 -0.02 -0.02 -0.13 -0.01 -0.02 -0.13
          0 -0.02 -0.13 0.01 -0.02 -0.13 0.02 -0.02 -0.13 0.03 -0.02 -0.13
          0.04 -0.02 -0.13 -0.04 -0.01 -0.13 -0.03 -0.01 -0.13 -0.02 -0.01 -0.13
          -0.01 -0.01 -0.13 0 -0.01 -0.13 0.01 -0.01 -0.13 0.02 -0.01 -0.13
          0.03 -0.01 -0.13 0.04 -0.01 -0.13 -0.04 0 -0.13 -0.03 0 -0.13
          -0.02 0 -0.13 -0.01 0 -0.13 0 0 -0.13 0.01 0 -0.13
          0.02 0 -0.13 0.03 0 -0.13 0.04 0 -0.13 -0.04 0.01 -0.13
          -0.03 0.01 -0.13 -0.02 0.01 -0.13 -0.01 0.01 -0.13 0 0.01 -0.13
          0.01 0.01 -0.13 0.02 0.01 -0.13 0.03 0.01 -0.13 0.04 0.01 -0.13
          -0.04 0.02 -0.13 -0.03 0.02 -0.13 -0.02 0.02 -0.13 -0.01 0.02 -0.13
          0 0.02 -0.13 0.01 0.02 -0.13 0.02 0.02 -0.13 0.03 0.02 -0.13
          0.04 0.02 -0.13 -0.04 0.03 -0.13 -0.03 0.03 -0.13 -0.02 0.03 -0.13
          -0.01 0.03 -0.13 0 0.03 -0.13 0.01 0.03 -0.13 0.02 0.03 -0.13
          0.03 0.03 -0.13 0.04 0.03 -0.13 -0.04 0.04 -0.13 -0.03 0.04 -0.13
          -0.02 0.04 -0.13 -0.01 0.04 -0.13 0 0.04 -0.13 0.01 0.04 -0.13
          0.02 0.04 -0.13 0.03 0.04 -0.13 0.04 0.04 -0.13 -0.04 -0.04 -0.12
          -0.03 -0.04 -0.12 -0.04 -0.03 -0.12 -0.03 -0.03 -0.12 -0.02 -0.04 -0.12
          -0.02 -0.03 -0.12 -0.01 -0.04 -0.12 -0.01 -0.03 -0.12 0 -0.04 -0.12
          0 -0.03 -0.12 0.01 -0.04 -0.12 0.01 -0.03 -0.12 0.02 -0.04 -0.12
          0.02 -0.03 -0.12 0.03 -0.04 -0.12 0.03 -0.03 -0.12 0.04 -0.04 -0.12
          0.04 -0.03 -0.12 -0.04 -0.02 -0.12 -0.03 -0.02 -0.12 -0.02 -0.02 -0.12
          -0.01 -0.02 -0.12 0 -0.02 -0.12 0.01 -0.02 -0.12 0.02 -0.02 -0.12
          0.03 -0.02 -0.12 0.04 -0.02 -0.12 -0.04 -0.01 -0.12 -0.03 -0.01 -0.12
          -0.02 -0.01 -0.12 -0.01 -0.01 -0.12 0 -0.01 -0.12 0.01 -0.01 -0.12
          0.02 -0.01 -0.12 0.03 -0.01 -0.12 0.04 -0.01 -0.12 -0.04 0 -0.12
          -0.03 0 -0.12 -0.02 0 -0.12 -0.01 0 -0.12 0 0 -0.12
          0.01 0 -0.12 0.02 0 -0.12 0.03 0 -0.12 0.04 0 -0.12
          -0.04 0.01 -0.12 -0.03 0.01 -0.12 -0.02 0.01 -0.12 -0.01 0.01 -0.12
          0 0.01 -0.12 0.01 0.01 -0.12 0.02 0.01 -0.12 0.03 0.01 -0.12
          0.04 0.01 -0.12 -0.04 0.02 -0.12 -0.03 0.02 -0.12 -0.02 0.02 -0.12
          -0.01 0.02 -0.12 0 0.02 -0.12 0.01 0.02 -0.12 0.02 0.02 -0.12
          0.03 0.02 -0.12 0.04 0.02 -0.12 -0.04 0.03 -0.12 -0.03 0.03 -0.12
          -0.02 0.03 -0.12 -0.01 0.03 -0.12 0 0.03 -0.12 0.01 0.03 -0.12
          0.02 0.03 -0.12 0.03 0.03 -0.12 0.04 0.03 -0.12 -0.04 0.04 -0.12
          -0.03 0.04 -0.12 -0.02 0.04 -0.12 -0.01 0.04 -0.12 0 0.04 -0.12
          0.01 0.04 -0.12 0.02 0.04 -0.12 0.03 0.04 -0.12 0.04 0.04 -0.12
          -0.04 -0.04 -0.11 -0.03 -0.04 -0.11 -0.04 -0.03 -0.11 -0.03 -0.03 -0.11
          -0.02 -0.04 -0.11 -0.02 -0.03 -0.11 -0.01 -0.04 -0.11 -0.01 -0.03 -0.11
          0 -0.04 -0.11 0 -0.03 -0.11 0.01 -0.04 -0.11 0.01 -0.03 -0.11
          0.02 -0.04 -0.11 0.02 -0.03 -0.11 0.03 -0.04 -0.11 0.03 -0.03 -0.11
          0.04 -0.04 -0.11 0.04 -0.03 -0.11 -0.04 -0.02 -0.11 -0.03 -0.02 -0.11
          -0.02 -0.02 -0.11 -0.01 -0.02 -0.11 0 -0.02 -0.11 0.01 -0.02 -0.11
          0.02 -0.02 -0.11 0.03 -0.02 -0.11 0.04 -0.02 -0.11 -0.04 -0.01 -0.11
          -0.03 -0.01 -0.11 -0.02 -0.01 -0.11 -0.01 -0.01 -0.11 0 -0.01 -0.11
          0.01 -0.01 -0.11 0.02 -0.01 -0.11 0.03 -0.01 -0.11 0.04 -0.01 -0.11
          -0.04 0 -0.11 -0.03 0 -0.11 -0.02 0 -0.11 -0.01 0 -0.11
          0 0 -0.11 0.01 0 -0.11 0.02 0 -0.11 0.03 0 -0.11
          0.04 0 -0.11 -0.04 0.01 -0.11 -0.03 0.01 -0.11 -0.02 0.01 -0.11
          -0.01 0.01 -0.11 0 0.01 -0.11 0.01 0.01 -0.11 0.02 0.01 -0.11
          0.03 0.01 -0.11 0.04 0.01 -0.11 -0.04 0.02 -0.11 -0.03 0.02 -0.11
          -0.02 0.02 -0.11 -0.01 0.02 -0.11 0 0.02 -0.11 0.01 0.02 -0.11
          0.02 0.02 -0.11 0.03 0.02 -0.11 0.04 0.02 -0.11 -0.04 0.03 -0.11
          -0.03 0.03 -0.11 -0.02 0.03 -0.11 -0.01 0.03 -0.11 0 0.03 -0.11
          0.01 0.03 -0.11 0.02 0.03 -0.11 0.03 0.03 -0.11 0.04 0.03 -0.11
          -0.04 0.04 -0.11 -0.03 0.04 -0.11 -0.02 0.04 -0.11 -0.01 0.04 -0.11
          0 0.04 -0.11 0.01 0.04 -0.11 0.02 0.04 -0.11 0.03 0.04 -0.11
          0.04 0.04 -0.11 -0.04 -0.04 -0.1 -0.03 -0.04 -0.1 -0.04 -0.03 -0.1
          -0.03 -0.03 -0.1 -0.02 -0.04 -0.1 -0.02 -0.03 -0.1 -0.01 -0.04 -0.1
          -0.01 -0.03 -0.1 0 -0.04 -0.1 0 -0.03 -0.1 0.01 -0.04 -0.1
          0.01 -0.03 -0.1 0.02 -0.04 -0.1 0.02 -0.03 -0.1 0.03 -0.04 -0.1
          0.03 -0.03 -0.1 0.04 -0.04 -0.1 0.04 -0.03 -0.1 -0.04 -0.02 -0.1
          -0.03 -0.02 -0.1 -0.02 -0.02 -0.1 -0.01 -0.02 -0.1 0 -0.02 -0.1
          0.01 -0.02 -0.1 0.02 -0.02 -0.1 0.03 -0.02 -0.1 0.04 -0.02 -0.1
          -0.04 -0.01 -0.1 -0.03 -0.01 -0.1 -0.02 -0.01 -0.1 -0.01 -0.01 -0.1
          0 -0.01 -0.1 0.01 -0.01 -0.1 0.02 -0.01 -0.1 0.03 -0.01 -0.1
          0.04 -0.01 -0.1 -0.04 0 -0.1 -0.03 0 -0.1 -0.02 0 -0.1
          -0.01 0 -0.1 0 0 -0.1 0.01 0 -0.1 0.02 0 -0.1
          0.03 0 -0.1 0.04 0 -0.1 -0.04 0.01 -0.1 -0.03 0.01 -0.1
          -0.02 0.01 -0.1 -0.01 0.01 -0.1 0 0.01 -0.1 0.01 0.01 -0.1
          0.02 0.01 -0.1 0.03 0.01 -0.1 0.04 0.01 -0.1 -0.04 0.02 -0.1
          -0.03 0.02 -0.1 -0.02 0.02 -0.1 -0.01 0.02 -0.1 0 0.02 -0.1
          0.01 0.02 -0.1 0.02 0.02 -0.1 0.03 0.02 -0.1 0.04 0.02 -0.1
          -0.04 0.03 -0.1 -0.03 0.03 -0.1 -0.02 0.03 -0.1 -0.01 0.03 -0.1