<?xml version="1.0"?>
<VTKFile type="UnstructuredGrid" version="0.1" byte_order="LittleEndian">
  <UnstructuredGrid>
    <Piece NumberOfCells="735" NumberOfPoints="1024">
      <CellData Scalars="p (Pa)">
        <DataArray type="Float32" Name="p (Pa)" NumberOfComponents="1" format="ascii">
          35787.2 35437.7 34884.6 34480.8 34620.2 35041.6 35358.3 35735.5 35351.9 34723.3 34220.7 34363.6
          34845.4 35207 35727.1 35345.9 34716.5 34184.5 34247.9 34726.5 35102.2 35812.1 35493.6 34994.1
          34607 34638.5 34968.7 35255.6 35962.6 35723.5 35375.2 35151.4 35202 35421 35609.3 36140.6
          35979.1 35759.8 35643 35698.6 35845.9 35965.3 36261.8 36146.7 35997.9 35929.3 35980.6 36090.4
          36175.2 35224.9 34640.8 33652.4 32854.1 33220.7 34026.6 34579.8 35122.9 34453.8 33243.3 32075.1
          32564.4 33599.9 34284.5 35088.2 34414.9 33189 31920 32095.5 33248.6 34027.9 35197.1 34638.9
          33713.2 32928.7 33012 33678.3 34246.2 35402.5 34970.1 34321.4 33932.1 34082.5 34495 34843.1
          35683.5 35394.4 35000.1 34817.1 34955.9 35225.5 35436.1 35884 35682.8 35424.8 35323.3 35436.6
          35633.3 35779.2 34147.1 32997.7 30799.1 28593.8 29932.5 31873.2 33026.4 33910.1 32492.7 29381.8
          24700.5 27622.6 30712.7 32338.5 33797.8 32345.9 29154.4 23971.6 24666.2 29363 31582.3 33938.2
          32746.4 30548 28303.9 28598.9 30376.1 31906 34230.5 33239.2 31606.4 30760.4 31387.8 32360.3
          33176.6 34763.9 34127 33222.3 32888.6 33328 33926.9 34375.3 35161.8 34741.9 34196.3 34025.2
          34325.2 34742.7 35037 32517.4 30310.3 25203.4 17430.8 23388.9 28238.5 30594.5 31987.2 28913.5
          19270.8 -18247.6 13942 25034.7 29048.8 31691.1 28459.1 18460.6 -21639.3 -18621.6 18932.7 26813.1
          31822.7 29186.2 23355 14774.5 16285.3 21455.9 27003.7 32136 29563.3 23921.2 21877.1 25497.7
          27926 30088.4 33211.4 31730 29344 28740.3 30282.7 31645 32628.2 34018.6 33139.4 31929.8
          31645.3 32444.9 33320.8 33904.4 30411.8 26646.4 15335.4 -24108.5 11389.6 22956.9 27303.2 29353.5
          22876.1 -18816.1 -1.37112e+06 -37615.5 14568 24262.2 28695.4 21545 -21889.8 -1.3715e+06 -1.37149e+06 -21629.8
          17984.7 28685.5 22853.2 5684.93 -47797.1 -31674.6 -23619.1 15382.3 28640.4 20515.3 -18662.5 -24072.4
          11492.8 17565.7 24644.9 30926.3 27393 19589.8 18503.7 24895.5 27956.4 30133.1 32505.2 30765.9
          28031.9 27564.4 29661 31382.4 32460.9 27992.9 23138.3 8793.2 -42102.9 -949.963 16530.8 23212.4
          26345.5 17623.4 -32226.5 -1.3715e+06 -71121.4 3448.26 18833.1 25183.3 13756.2 -47749.9 -1.3715e+06 -1.3715e+06
          -54270.3 7527 24878 12648.3 -49103.3 -1.37133e+06 -120936 -1.37112e+06 -25625.3 23462.7 -14373 -1.35952e+06
          -1.37118e+06 -32100.6 -19469.8 15960 28388.5 20348.7 -17125.4 -19514.4 16142.5 22666.2 27401 31074.1
          28139.3 22230 21354.6 26438.5 29376.6 31103.7 24669.4 18541.9 3805.83 -48292.2 -43385 3294.89
          16917.7 21899.9 9059.5 -45308.5 -1.3715e+06 -1.37139e+06 -32926.1 11822.1 20799.2 -5435.69 -428485 -6.32604e+09
          -1.3715e+06 -70199.5 1167.83 22382.6 6809.78 -68692.4 -1.3715e+06 -1.37147e+06 -1.37137e+06 -32210.5 22100.6 -17904.1
          -1.37107e+06 -1.37123e+06 -56198.7 -23525.8 14052.3 27757.3 19269.2 -20535.2 -28567.1 12419.3 21285 26556
          30674.3 27548.1 21009.2 19147.9 25101.9 28631 30571.3 19218.5 8200.02 -3367.78 -13307 -23802.2
          -44471.6 3889.55 12216.8 -32901.8 -65568.9 -91853.5 -100351 -17789.4 6204.75 17342.8 -2918.08 -86999.5
          -1.3715e+06 -1.3715e+06 -54953.9 -1532.12 22235.9 9862.66 -49296.6 -1.3715e+06 -114498 -42349.4 3901.66 25284.1
          14503.7 -41898.6 -1.37117e+06 -30390.7 9420.43 19611.8 29211.5 24761.3 12949.6 -17611.1 16224.7 24409.2
          27685.7 31389 29188.5 25111.8 21829.2 26265.6 29347.2 30918 12034.5 -29078 -45873.2 -24406.6
          -99088.7 -1.37139e+06 -46761.1 -22426.7 -1.37029e+06 -1.37146e+06 -113958 -1.37149e+06 -76494.7 -12233.2 12103.4 -41620.3
          -1.37147e+06 -1.3715e+06 -1.3715e+06 -62538.2 -47138.2 22676.8 11137 -46759.1 -1.37148e+06 -61206.9 -3559.67 4267.01
          27561.5 22443.4 8266.54 -38817.4 5455.15 17680.9 21413.1 30763.2 28321.4 23392 17000.8 22936.5
          26878.6 28660.2 32383.8 30996.7 28671.6 26948.7 28603.3 30450.8 31477.2 19121.8 8260.08 -4690.75
          -52370.7 -1.37147e+06 -1.37148e+06 -69931.3 12210.1 -32508.7 -66113.8 -112330 -1.3715e+06 -115493 -65720 17936.3
          -1304.96 -79766.2 -1.3715e+06 -1.3715e+06 -96602.9 -1.37144e+06 24818 17534.8 -2492.18 -59718.2 -46464.5 -6117.16
          -29670.6 29251.5 26070.2 19313.7 9533.87 12047.8 18916.1 19525.1 31926.2 30395.4 27679.5 25090.8
          25975.6 28028.5 28971.3 33200.5 32298.6 30862.4 29798.4 30234 31246 31874.3 24554.3 19199.6
          8563.83 -11421.3 -91779.7 -106394 -25173.5 21819.2 9736.33 -34330.6 -83822.7 -1.3715e+06 -171444 -75548.2
          20779 -17493.8 -1.37141e+06 -1.37149e+06 -6.87598e+08 -1.3715e+06 -1.37142e+06 26424.6 18275.3 -20860.2 -43770.4 -253448
          -34395 -29253.6 30373.3 27659.7 21500.9 15206.2 5709.5 17782.3 19997.4 32673 31506.2 29453.6
          27554.8 26854 28542.8 29392.8 33729.5 33068.9 32015.5 31161.4 31095.5 31735 32194.7 27618.5
          23835.7 15249.1 -3824.85 -79137.9 -1.37097e+06 -51348.2 26264.5 20179.5 2625.27 -63345.8 -1.37149e+06 -1.37148e+06
          -57783.5 25679.6 15446.4 -41604.8 -1.3715e+06 -1.3715e+06 -85372 -45631.7 28501.6 23756.3 10378.2 -28931.8
          -39109.9 1088.27 8735.87 31292.5 29216.9 24946 19107.5 16713.6 22013.7 24258.1 33133.3 32175.6
          30499.6 28824.9 28344.5 29512.9 30308.5 34010.1 33464.7 32582.6 31817.6 31676.3 32153.3 32552.5
          28996.8 25425.4 16382.8 -4556.16 -62450.3 -52178.3 -204.023 28090.2 22957.1 6481.57 -63537.4 -1.37148e+06
          -78397.8 -3535.16 27862.9 21896.1 2366.4 -75479.3 -1.37149e+06 -42886.7 2986.68 29607.1 25926 16872.7
          -808.074 -29609.4 9087.42 18024.5 31734.9 29858.7 26046.6 21064.6 19156.7 24108.5 26608.6 33298.1
          32383.7 30759.2 29132 28901.8 30113.8 30987 34076 33552.1 32690.6 31941 31874.5 32382
          32806.5 29396.3 25391.4 12991.5 -35325.8 -48565.4 -970.914 13541.2 28443.7 21711.6 -21930.7 -1.37146e+06
          -1.37148e+06 -38169.2 9214.25 28160.4 20595.7 -26577.4 -1.36472e+06 -1.37149e+06 -36389.2 10788.2 29627.4 25076.5
          10396.8 -45129.8 -31912.2 10931.1 20833 31650.1 29405.7 24172.1 15373 18189.1 24613 27552.9
          33199.1 32148.2 30148.8 27992.9 28562.2 30220.4 31272.3 33980.1 33400.5 32417 31563.5 31705.7
          32382.4 32887.9 29580.4 25969.3 16892.3 -286.255 -3904.85 10808 18354.2 28664.4 23200.6 4889.2
          -63076.3 -69226.1 -1444.17 15080.5 28042.1 19799.4 -31354.9 -1.37149e+06 -1.37149e+06 -32669.1 13203.7 29179.5
          22471.2 -20772.5 -1.37126e+06 -46319.7 10621.7 21580.7 31333.3 28394.9 19338.1 -15319.8 14830.6 24317.5
          27753.5 32997.4 31738.1 29058.3 25273.7 27728.5 30044.4 31284.6 33828.2 33172.6 32011.1 30946.5
          31380.5 32255.3 32841.4
        </DataArray>
        <DataArray type="Float32" Name="saturation" NumberOfComponents="1" format="ascii">
          0.141181 0.140745 0.140067 0.139581 0.139748 0.140258 0.140647 0.141116 0.140639 0.139872 0.139272 0.139442
          0.14002 0.140461 0.141106 0.140632 0.139864 0.139229 0.139304 0.139876 0.140332 0.141212 0.140815 0.1402
          0.139733 0.13977 0.14017 0.140521 0.141402 0.141101 0.140668 0.140393 0.140455 0.140725 0.140959 0.141628
          0.141423 0.141147 0.141001 0.14107 0.141255 0.141405 0.141782 0.141635 0.141447 0.14136 0.141425 0.141564
          0.141672 0.140483 0.139773 0.138607 0.137696 0.138111 0.139043 0.1397 0.140358 0.139549 0.138137 0.136833
          0.137372 0.138546 0.139348 0.140315 0.139503 0.138075 0.136664 0.136855 0.138143 0.139045 0.140449 0.139771
          0.138678 0.13778 0.137874 0.138637 0.139302 0.140702 0.140171 0.139392 0.138933 0.139109 0.139598 0.140017
          0.141051 0.140692 0.140208 0.139986 0.140154 0.140484 0.140743 0.141303 0.14105 0.140729 0.140604 0.140744
          0.140989 0.141171 0.139185 0.137858 0.13547 0.133256 0.134579 0.136613 0.137891 0.138907 0.137293 0.134027
          0.129734 0.132333 0.13538 0.137122 0.138776 0.13713 0.133803 0.129124 0.129705 0.134009 0.136299 0.13894
          0.137575 0.135209 0.132977 0.133261 0.135032 0.136649 0.139284 0.138132 0.136325 0.13543 0.136091 0.137146
          0.138061 0.139921 0.139162 0.138113 0.137735 0.138234 0.138927 0.139456 0.140405 0.139895 0.139243 0.139042
          0.139396 0.139896 0.140253 0.13732 0.134964 0.130163 0.124239 0.128647 0.132915 0.135257 0.136737 0.133566
          0.125514 0.108748 0.122005 0.130019 0.133699 0.136416 0.133126 0.124944 0.107845 0.108645 0.125274 0.131588
          0.136558 0.133834 0.128619 0.122517 0.12348 0.127126 0.131761 0.136899 0.134208 0.129082 0.127449 0.130418
          0.132618 0.134738 0.138101 0.136458 0.13399 0.133398 0.134936 0.136366 0.137443 0.139034 0.138019 0.136674
          0.136367 0.13724 0.138226 0.1389 0.135069 0.131436 0.12287 0.107226 0.120508 0.128298 0.132037 0.133999
          0.128234 0.108592 0.0874537 0.10432 0.122389 0.129365 0.133354 0.127194 0.107781 0.0874535 0.0874535 0.107847
          0.124615 0.133345 0.128216 0.117521 0.102559 0.105507 0.107346 0.122899 0.133301 0.126419 0.108634 0.107234
          0.120566 0.12433 0.129687 0.135603 0.13212 0.125743 0.124974 0.1299 0.132647 0.134783 0.137307 0.135435
          0.132718 0.132279 0.134306 0.136085 0.137257 0.132681 0.128444 0.119091 0.103505 0.114567 0.12364 0.128504
          0.131166 0.124369 0.105391 0.0874535 0.0994831 0.116469 0.125204 0.130146 0.121892 0.102567 0.0874535 0.0874535
          0.101589 0.118435 0.129885 0.121232 0.102355 0.0874536 0.0954971 0.0874537 0.10686 0.128707 0.109863 0.0874597
          0.0874537 0.105417 0.108415 0.123269 0.133058 0.126295 0.109061 0.108403 0.123387 0.128067 0.132127 0.135758
          0.13282 0.127723 0.127048 0.131249 0.134022 0.13579 0.129708 0.125 0.116633 0.102481 0.103284 0.116399
          0.123896 0.127467 0.119231 0.102961 0.0874535 0.0874536 0.105246 0.120754 0.12663 0.112828 0.0892656 -0.103092
          0.0874535 0.099585 0.115456 0.127843 0.118074 0.0997544 0.0874535 0.0874535 0.0874536 0.105394 0.127623 0.108843
          0.0874537 0.0874537 0.101319 0.107369 0.122072 0.132459 0.125513 0.108132 0.106182 0.121099 0.126996 0.131355
          0.13534 0.132264 0.126787 0.125427 0.130076 0.133292 0.135233 0.125477 0.118781 0.113606 0.110186 0.107301
          0.1031 0.116671 0.120981 0.105251 0.100118 0.0975098 0.0968459 0.108875 0.117774 0.12418 0.113781 0.0979231
          0.0874535 0.0874535 0.101492 0.11433 0.127728 0.119662 0.102325 0.0874535 0.0958843 0.103462 0.116677 0.130233
          0.122349 0.103541 0.0874537 0.105781 0.119424 0.125759 0.133859 0.129786 0.12141 0.108925 0.12344 0.129488
          0.132392 0.136092 0.133836 0.130085 0.127412 0.131095 0.133993 0.135594 0.120876 0.106068 0.102869 0.107153
          0.0969401 0.0874536 0.102725 0.107644 0.0874541 0.0874535 0.0959181 0.0874535 0.0989159 0.110519 0.120915 0.10359
          0.0874535 0.0874535 0.0874535 0.100487 0.102664 0.128075 0.120365 0.102725 0.0874535 0.100655 0.113533 0.116847
          0.132276 0.127891 0.118815 0.104095 0.11741 0.124408 0.127093 0.135433 0.132994 0.128649 0.123951 0.128282
          0.131647 0.13332 0.137172 0.135677 0.133331 0.131711 0.133265 0.135109 0.136186 0.125408 0.118812 0.113104
          0.101863 0.0874535 0.0874535 0.0996148 0.120977 0.105332 0.100053 0.0960213 0.0874535 0.0958226 0.1001 0.124582
          0.114422 0.0985911 0.0874535 0.0874535 0.0971299 0.0874536 0.129834 0.124309 0.113948 0.100847 0.102772 0.11258
          0.105938 0.133898 0.130921 0.125545 0.119485 0.120883 0.125263 0.125696 0.136671 0.135052 0.132387 0.130067
          0.130837 0.132715 0.133623 0.138088 0.137078 0.135536 0.134444 0.134886 0.13594 0.136614 0.12961 0.125464
          0.11897 0.110777 0.0975159 0.096415 0.106968 0.127404 0.119594 0.10496 0.0982084 0.0874535 0.0932286 0.0990127
          0.126615 0.108958 0.0874536 0.0874535 0.0665003 0.0874535 0.0874536 0.131237 0.124815 0.108047 0.103219 0.0911781
          0.104947 0.106029 0.135029 0.132368 0.12716 0.122788 0.117533 0.124477 0.126038 0.137493 0.136218 0.134099
          0.13227 0.131625 0.133207 0.134038 0.138697 0.137939 0.136768 0.135851 0.135781 0.136463 0.136964 0.13233
          0.129012 0.122815 0.113431 0.0986523 0.0874538 0.102014 0.131094 0.126171 0.116096 0.100387 0.0874535 0.0874535
          0.101103 0.130577 0.12294 0.103593 0.0874535 0.0874535 0.0980677 0.102908 0.133167 0.128947 0.119944 0.106101
          0.104041 0.115422 0.119061 0.13599 0.133864 0.129943 0.125398 0.123761 0.127555 0.129362 0.138012 0.136943
          0.135159 0.13348 0.133016 0.134158 0.134963 0.139024 0.138391 0.137393 0.136553 0.1364 0.136918 0.137359
          0.133648 0.130355 0.123543 0.113155 0.100498 0.101891 0.114875 0.132774 0.128299 0.117911 0.100364 0.0874535
          0.0987252 0.113542 0.132559 0.127464 0.115981 0.0990198 0.0874535 0.103369 0.116259 0.134252 0.130793 0.123866
          0.114625 0.105951 0.119246 0.124643 0.136463 0.134505 0.1309 0.126829 0.125433 0.129237 0.131402 0.1382
          0.137172 0.135428 0.133781 0.133555 0.134763 0.135667 0.139102 0.138491 0.137513 0.136687 0.136614 0.13717
          0.137643 0.134042 0.130326 0.121435 0.104762 0.102439 0.114558 0.121762 0.133111 0.127322 0.10777 0.0874535
          0.0874535 0.104216 0.119314 0.13284 0.126478 0.106637 0.087457 0.0874535 0.104555 0.12017 0.134272 0.130054
          0.119954 0.102991 0.105457 0.12025 0.126655 0.136372 0.134051 0.12929 0.122894 0.124756 0.12966 0.132268
          0.138087 0.136913 0.134799 0.132681 0.133225 0.134872 0.135968 0.138989 0.138317 0.137209 0.136279 0.136432
          0.137171 0.137734 0.134225 0.130832 0.123879 0.11484 0.113401 0.120181 0.12487 0.133324 0.128494 0.117139
          0.100421 0.099694 0.114366 0.122709 0.132728 0.125894 0.105574 0.0874535 0.0874535 0.105299 0.121561 0.133827
          0.127913 0.10807 0.0874536 0.102796 0.120078 0.127221 0.136033 0.133064 0.125562 0.109582 0.122552 0.129412
          0.132456 0.137858 0.136467 0.133708 0.130224 0.132432 0.134693 0.135981 0.138811 0.138057 0.136763 0.135624
          0.136083 0.13703 0.137682
        </DataArray>
        <DataArray type="Float32" Name="process rank" NumberOfComponents="1" format="ascii">
          0 0 0 0 0 0 0 0 0 0 0 0
          0 0 0 0 0 0 0 0 0 0 0 0
          0 0 0 0 0 0 0 0 0 0 0 0
          0 0 0 0 0 0 0 0 0 0 0 0
          0 0 0 0 0 0 0 0 0 0 0 0
          0 0 0 0 0 0 0 0 0 0 0 0
          0 0 0 0 0 0 0 0 0 0 0 0
          0 0 0 0 0 0 0 0 0 0 0 0
          0 0 0 0 0 0 0 0 0 0 0 0
          0 0 0 0 0 0 0 0 0 0 0 0
          0 0 0 0 0 0 0 0 0 0 0 0
          0 0 0 0 0 0 0 0 0 0 0 0
          0 0 0 0 0 0 0 0 0 0 0 0
          0 0 0 0 0 0 0 0 0 0 0 0
          0 0 0 0 0 0 0 0 0 0 0 0
          0 0 0 0 0 0 0 0 0 0 0 0
          0 0 0 0 0 0 0 0 0 0 0 0
          0 0 0 0 0 0 0 0 0 0 0 0
          0 0 0 0 0 0 0 0 0 0 0 0
          0 0 0 0 0 0 0 0 0 0 0 0
          0 0 0 0 0 0 0 0 0 0 0 0
          0 0 0 0 0 0 0 0 0 0 0 0
          0 0 0 0 0 0 0 0 0 0 0 0
          0 0 0 0 0 0 0 0 0 0 0 0
          0 0 0 0 0 0 0 0 0 0 0 0
          0 0 0 0 0 0 0 0 0 0 0 0
          0 0 0 0 0 0 0 0 0 0 0 0
          0 0 0 0 0 0 0 0 0 0 0 0
          0 0 0 0 0 0 0 0 0 0 0 0
          0 0 0 0 0 0 0 0 0 0 0 0
          0 0 0 0 0 0 0 0 0 0 0 0
          0 0 0 0 0 0 0 0 0 0 0 0
          0 0 0 0 0 0 0 0 0 0 0 0
          0 0 0 0 0 0 0 0 0 0 0 0
          0 0 0 0 0 0 0 0 0 0 0 0
          0 0 0 0 0 0 0 0 0 0 0 0
          0 0 0 0 0 0 0 0 0 0 0 0
          0 0 0 0 0 0 0 0 0 0 0 0
          0 0 0 0 0 0 0 0 0 0 0 0
          0 0 0 0 0 0 0 0 0 0 0 0
          0 0 0 0 0 0 0 0 0 0 0 0
          0 0 0 0 0 0 0 0 0 0 0 0
          0 0 0 0 0 0 0 0 0 0 0 0
          0 0 0 0 0 0 0 0 0 0 0 0
          0 0 0 0 0 0 0 0 0 0 0 0
          0 0 0 0 0 0 0 0 0 0 0 0
          0 0 0 0 0 0 0 0 0 0 0 0
          0 0 0 0 0 0 0 0 0 0 0 0
          0 0 0 0 0 0 0 0 0 0 0 0
          0 0 0 0 0 0 0 0 0 0 0 0
          0 0 0 0 0 0 0 0 0 0 0 0
          0 0 0 0 0 0 0 0 0 0 0 0
          0 0 0 0 0 0 0 0 0 0 0 0
          0 0 0 0 0 0 0 0 0 0 0 0
          0 0 0 0 0 0 0 0 0 0 0 0
          0 0 0 0 0 0 0 0 0 0 0 0
          0 0 0 0 0 0 0 0 0 0 0 0
          0 0 0 0 0 0 0 0 0 0 0 0
          0 0 0 0 0 0 0 0 0 0 0 0
          0 0 0 0 0 0 0 0 0 0 0 0
          0 0 0 0 0 0 0 0 0 0 0 0
          0 0 0
        </DataArray>
      </CellData>
      <Points>
        <DataArray type="Float32" Name="Coordinates" NumberOfComponents="3" format="ascii">
          -0.04 -0.04 -0.15 -0.0285714 -0.04 -0.15 -0.04 -0.0285714 -0.15 -0.0285714 -0.0285714 -0.15
          -0.04 -0.04 -0.14 -0.0285714 -0.04 -0.14 -0.04 -0.0285714 -0.14 -0.0285714 -0.0285714 -0.14
          -0.0171429 -0.04 -0.15 -0.0171429 -0.0285714 -0.15 -0.0171429 -0.04 -0.14 -0.0171429 -0.0285714 -0.14
          -0.00571429 -0.04 -0.15 -0.00571429 -0.0285714 -0.15 -0.00571429 -0.04 -0.14 -0.00571429 -0.0285714 -0.14
          0.00571429 -0.04 -0.15 0.00571429 -0.0285714 -0.15 0.00571429 -0.04 -0.14 0.00571429 -0.0285714 -0.14
          0.0171429 -0.04 -0.15 0.0171429 -0.0285714 -0.15 0.0171429 -0.04 -0.14 0.0171429 -0.0285714 -0.14
          0.0285714 -0.04 -0.15 0.0285714 -0.0285714 -0.15 0.0285714 -0.04 -0.14 0.0285714 -0.0285714 -0.14
          0.04 -0.04 -0.15 0.04 -0.0285714 -0.15 0.04 -0.04 -0.14 0.04 -0.0285714 -0.14
          -0.04 -0.0171429 -0.15 -0.0285714 -0.0171429 -0.15 -0.04 -0.0171429 -0.14 -0.0285714 -0.0171429 -0.14
          -0.0171429 -0.0171429 -0.15 -0.0171429 -0.0171429 -0.14 -0.00571429 -0.0171429 -0.15 -0.00571429 -0.0171429 -0.14
          0.00571429 -0.0171429 -0.15 0.00571429 -0.0171429 -0.14 0.0171429 -0.0171429 -0.15 0.0171429 -0.0171429 -0.14
          0.0285714 -0.0171429 -0.15 0.0285714 -0.0171429 -0.14 0.04 -0.0171429 -0.15 0.04 -0.0171429 -0.14
          -0.04 -0.00571429 -0.15 -0.0285714 -0.00571429 -0.15 -0.04 -0.00571429 -0.14 -0.0285714 -0.00571429 -0.14
          -0.0171429 -0.00571429 -0.15 -0.0171429 -0.00571429 -0.14 -0.00571429 -0.00571429 -0.15 -0.00571429 -0.00571429 -0.14
          0.00571429 -0.00571429 -0.15 0.00571429 -0.00571429 -0.14 0.0171429 -0.00571429 -0.15 0.0171429 -0.00571429 -0.14
          0.0285714 -0.00571429 -0.15 0.0285714 -0.00571429 -0.14 0.04 -0.00571429 -0.15 0.04 -0.00571429 -0.14
          -0.04 0.00571429 -0.15 -0.0285714 0.00571429 -0.15 -0.04 0.00571429 -0.14 -0.0285714 0.00571429 -0.14
          -0.0171429 0.00571429 -0.15 -0.0171429 0.00571429 -0.14 -0.00571429 0.00571429 -0.15 -0.00571429 0.00571429 -0.14
          0.00571429 0.00571429 -0.15 0.00571429 0.00571429 -0.14 0.0171429 0.00571429 -0.15 0.0171429 0.00571429 -0.14
          0.0285714 0.00571429 -0.15 0.0285714 0.00571429 -0.14 0.04 0.00571429 -0.15 0.04 0.00571429 -0.14
          -0.04 0.0171429 -0.15 -0.0285714 0.0171429 -0.15 -0.04 0.0171429 -0.14 -0.0285714 0.0171429 -0.14
          -0.0171429 0.0171429 -0.15 -0.0171429 0.0171429 -0.14 -0.00571429 0.0171429 -0.15 -0.00571429 0.0171429 -0.14
          0.00571429 0.0171429 -0.15 0.00571429 0.0171429 -0.14 0.0171429 0.0171429 -0.15 0.0171429 0.0171429 -0.14
          0.0285714 0.0171429 -0.15 0.0285714 0.0171429 -0.14 0.04 0.0171429 -0.15 0.04 0.0171429 -0.14
          -0.04 0.0285714 -0.15 -0.0285714 0.0285714 -0.15 -0.04 0.0285714 -0.14 -0.0285714 0.0285714 -0.14
          -0.0171429 0.0285714 -0.15 -0.0171429 0.0285714 -0.14 -0.00571429 0.0285714 -0.15 -0.00571429 0.0285714 -0.14
          0.00571429 0.0285714 -0.15 0.00571429 0.0285714 -0.14 0.0171429 0.0285714 -0.15 0.0171429 0.0285714 -0.14
          0.0285714 0.0285714 -0.15 0.0285714 0.0285714 -0.14 0.04 0.0285714 -0.15 0.04 0.0285714 -0.14
          -0.04 0.04 -0.15 -0.0285714 0.04 -0.15 -0.04 0.04 -0.14 -0.0285714 0.04 -0.14
          -0.0171429 0.04 -0.15 -0.0171429 0.04 -0.14 -0.00571429 0.04 -0.15 -0.00571429 0.04 -0.14
          0.00571429 0.04 -0.15 0.00571429 0.04 -0.14 0.0171429 0.04 -0.15 0.0171429 0.04 -0.14
          0.0285714 0.04 -0.15 0.0285714 0.04 -0.14 0.04 0.04 -0.15 0.04 0.04 -0.14
          -0.04 -0.04 -0.13 -0.0285714 -0.04 -0.13 -0.04 -0.0285714 -0.13 -0.0285714 -0.0285714 -0.13
          -0.0171429 -0.04 -0.13 -0.0171429 -0.0285714 -0.13 -0.00571429 -0.04 -0.13 -0.00571429 -0.0285714 -0.13
          0.00571429 -0.04 -0.13 0.00571429 -0.0285714 -0.13 0.0171429 -0.04 -0.13 0.0171429 -0.0285714 -0.13
          0.0285714 -0.04 -0.13 0.0285714 -0.0285714 -0.13 0.04 -0.04 -0.13 0.04 -0.0285714 -0.13
          -0.04 -0.0171429 -0.13 -0.0285714 -0.0171429 -0.13 -0.0171429 -0.0171429 -0.13 -0.00571429 -0.0171429 -0.13
          0.00571429 -0.0171429 -0.13 0.0171429 -0.0171429 -0.13 0.0285714 -0.0171429 -0.13 0.04 -0.0171429 -0.13
          -0.04 -0.00571429 -0.13 -0.0285714 -0.00571429 -0.13 -0.0171429 -0.00571429 -0.13 -0.00571429 -0.00571429 -0.13
          0.00571429 -0.00571429 -0.13 0.0171429 -0.00571429 -0.13 0.0285714 -0.00571429 -0.13 0.04 -0.00571429 -0.13
          -0.04 0.00571429 -0.13 -0.0285714 0.00571429 -0.13 -0.0171429 0.00571429 -0.13 -0.00571429 0.00571429 -0.13
          0.00571429 0.00571429 -0.13 0.0171429 0.00571429 -0.13 0.0285714 0.00571429 -0.13 0.04 0.00571429 -0.13
          -0.04 0.0171429 -0.13 -0.0285714 0.0171429 -0.13 -0.0171429 0.0171429 -0.13 -0.00571429 0.0171429 -0.13
          0.00571429 0.0171429 -0.13 0.0171429 0.0171429 -0.13 0.0285714 0.0171429 -0.13 0.04 0.0171429 -0.13
          -0.04 0.0285714 -0.13 -0.0285714 0.0285714 -0.13 -0.0171429 0.0285714 -0.13 -0.00571429 0.0285714 -0.13
          0.00571429 0.0285714 -0.13 0.0171429 0.0285714 -0.13 0.0285714 0.0285714 -0.13 0.04 0.0285714 -0.13
          -0.04 0.04 -0.13 -0.0285714 0.04 -0.13 -0.0171429 0.04 -0.13 -0.00571429 0.04 -0.13
          0.00571429 0.04 -0.13 0.0171429 0.04 -0.13 0.0285714 0.04 -0.13 0.04 0.04 -0.13
          -0.04 -0.04 -0.12 -0.0285714 -0.04 -0.12 -0.04 -0.0285714 -0.12 -0.0285714 -0.0285714 -0.12
          -0.0171429 -0.04 -0.12 -0.0171429 -0.0285714 -0.12 -0.00571429 -0.04 -0.12 -0.00571429 -0.0285714 -0.12
          0.00571429 -0.04 -0.12 0.00571429 -0.0285714 -0.12 0.0171429 -0.04 -0.12 0.0171429 -0.0285714 -0.12
          0.0285714 -0.04 -0.12 0.0285714 -0.0285714 -0.12 0.04 -0.04 -0.12 0.04 -0.0285714 -0.12
          -0.04 -0.0171429 -0.12 -0.0285714 -0.0171429 -0.12 -0.0171429 -0.0171429 -0.12 -0.00571429 -0.0171429 -0.12
          0.00571429 -0.0171429 -0.12 0.0171429 -0.0171429 -0.12 0.0285714 -0.0171429 -0.12 0.04 -0.0171429 -0.12
          -0.04 -0.00571429 -0.12 -0.0285714 -0.00571429 -0.12 -0.0171429 -0.00571429 -0.12 -0.00571429 -0.00571429 -0.12
          0.00571429 -0.00571429 -0.12 0.0171429 -0.00571429 -0.12 0.0285714 -0.00571429 -0.12 0.04 -0.00571429 -0.12
          -0.04 0.00571429 -0.12 -0.0285714 0.00571429 -0.12 -0.0171429 0.00571429 -0.12 -0.00571429 0.00571429 -0.12
          0.00571429 0.00571429 -0.12 0.0171429 0.00571429 -0.12 0.0285714 0.00571429 -0.12 0.04 0.00571429 -0.12
          -0.04 0.0171429 -0.12 -0.0285714 0.0171429 -0.12 -0.0171429 0.0171429 -0.12 -0.00571429 0.0171429 -0.12
          0.00571429 0.0171429 -0.12 0.0171429 0.0171429 -0.12 0.0285714 0.0171429 -0.12 0.04 0.0171429 -0.12
          -0.04 0.0285714 -0.12 -0.0285714 0.0285714 -0.12 -0.0171429 0.0285714 -0.12 -0.00571429 0.0285714 -0.12
          0.00571429 0.0285714 -0.12 0.0171429 0.0285714 -0.12 0.0285714 0.0285714 -0.12 0.04 0.0285714 -0.12
          -0.04 0.04 -0.12 -0.0285714 0.04 -0.12 -0.0171429 0.04 -0.12 -0.00571429 0.04 -0.12
          0.00571429 0.04 -0.12 0.0171429 0.04 -0.12 0.0285714 0.04 -0.12 0.04 0.04 -0.12
          -0.04 -0.04 -0.11 -0.0285714 -0.04 -0.11 -0.04 -0.0285714 -0.11 -0.0285714 -0.0285714 -0.11
          -0.0171429 -0.04 -0.11 -0.0171429 -0.0285714 -0.11 -0.00571429 -0.04 -0.11 -0.00571429 -0.0285714 -0.11
          0.00571429 -0.04 -0.11 0.00571429 -0.0285714 -0.11 0.0171429 -0.04 -0.11 0.0171429 -0.0285714 -0.11
          0.0285714 -0.04 -0.11 0.0285714 -0.0285714 -0.11 0.04 -0.04 -0.11 0.04 -0.0285714 -0.11
          -0.04 -0.0171429 -0.11 -0.0285714 -0.0171429 -0.11 -0.0171429 -0.0171429 -0.11 -0.00571429 -0.0171429 -0.11
          0.00571429 -0.0171429 -0.11 0.0171429 -0.0171429 -0.11 0.0285714 -0.0171429 -0.11 0.04 -0.0171429 -0.11
          -0.04 -0.00571429 -0.11 -0.0285714 -0.00571429 -0.11 -0.0171429 -0.00571429 -0.11 -0.00571429 -0.00571429 -0.11
          0.00571429 -0.00571429 -0.11 0.0171429 -0.00571429 -0.11 0.0285714 -0.00571429 -0.11 0.04 -0.00571429 -0.11
          -0.04 0.00571429 -0.11 -0.0285714 0.00571429 -0.11 -0.0171429 0.00571429 -0.11 -0.00571429 0.00571429 -0.11
          0.00571429 0.00571429 -0.11 0.0171429 0.00571429 -0.11 0.0285714 0.00571429 -0.11 0.04 0.00571429 -0.11
          -0.04 0.0171429 -0.11 -0.0285714 0.0171429 -0.11 -0.0171429 0.0171429 -0.11 -0.00571429 0.0171429 -0.11
          0.00571429 0.0171429 -0.11 0.0171429 0.0171429 -0.11 0.0285714 0.0171429 -0.11 0.04 0.0171429 -0.11
          -0.04 0.0285714 -0.11 -0.0285714 0.0285714 -0.11 -0.0171429 0.0285714 -0.11 -0.00571429 0.0285714 -0.11
          0.00571429 0.0285714 -0.11 0.0171429 0.0285714 -0.11 0.0285714 0.0285714 -0.11 0.04 0.0285714 -0.11
          -0.04 0.04 -0.11 -0.0285714 0.04 -0.11 -0.0171429 0.04 -0.11 -0.00571429 0.04 -0.11
          0.00571429 0.04 -0.11 0.0171429 0.04 -0.11 0.0285714 0.04 -0.11 0.04 0.04 -0.11
          -0.04 -0.04 -0.1 -0.0285714 -0.04 -0.1 -0.04 -0.0285714 -0.1 -0.0285714 -0.0285714 -0.1
          -0.0171429 -0.04 -0.1 -0.0171429 -0.0285714 -0.1 -0.00571429 -0.04 -0.1 -0.00571429 -0.0285714 -0.1
          0.00571429 -0.04 -0.1 0.00571429 -0.0285714 -0.1 0.0171429 -0.04 -0.1 0.0171429 -0.0285714 -0.1
          0.0285714 -0.04 -0.1 0.0285714 -0.0285714 -0.1 0.04 -0.04 -0.1 0.04 -0.0285714 -0.1
          -0.04 -0.0171429 -0.1 -0.0285714 -0.0171429 -0.1 -0.0171429 -0.0171429 -0.1 -0.00571429 -0.0171429 -0.1
          0.00571429 -0.0171429 -0.1 0.0171429 -0.0171429 -0.1 0.0285714 -0.0171429 -0.1 0.04 -0.0171429 -0.1
          -0.04 -0.00571429 -0.1 -0.0285714 -0.00571429 -0.1 -0.0171429 -0.00571429 -0.1 -0.00571429 -0.00571429 -0.1
          0.00571429 -0.00571429 -0.1 0.0171429 -0.00571429 -0.1 0.0285714 -0.00571429 -0.1 0.04 -0.00571429 -0.1
          -0.04 0.00571429 -0.1 -0.0285714 0.00571429 -0.1 -0.0171429 0.00571429 -0.1 -0.00571429 0.00571429 -0.1
          0.00571429 0.00571429 -0.1 0.0171429 0.00571429 -0.1 0.0285714 0.00571429 -0.1 0.04 0.00571429 -0.1
          -0.04 0.0171429 -0.1 -0.0285714 0.0171429 -0.1 -0.0171429 0.0171429 -0.1 -0.00571429 0.0171429 -0.1
          0.00571429 0.0171429 -0.1 0.0171429 0.0171429 -0.1 0.0285714 0.0171429 -0.1 0.04 0.0171429 -0.1
          -0.04 0.0285714 -0.1 -0.0285714 0.0285714 -0.1 -0.0171429 0.0285714 -0.1 -0.00571429 0.0285714 -0.1
          0.00571429 0.0285714 -0.1 0.0171429 0.0285714 -0.1 0.0285714 0.0285714 -0.1 0.04 0.0285714 -0.1
          -0.04 0.04 -0.1 -0.0285714 0.04 -0.1 -0.0171429 0.04 -0.1 -0.00571429 0.04 -0.1
          0.00571429 0.04 -0.1 0.0171429 0.04 -0.1 0.0285714 0.04 -0.1 0.04 0.04 -0.1
          -0.04 -0.04 -0.09 -0.0285714 -0.04 -0.09 -0.04 -0.0285714 -0.09 -0.0285714 -0.0285714 -0.09
          -0.0171429 -0.04 -0.09 -0.0171429 -0.0285714 -0.09 -0.00571429 -0.04 -0.09 -0.00571429 -0.0285714 -0.09
          0.00571429 -0.04 -0.09 0.00571429 -0.0285714 -0.09 0.0171429 -0.04 -0.09 0.0171429 -0.0285714 -0.09
          0.0285714 -0.04 -0.09 0.0285714 -0.0285714 -0.09 0.04 -0.04 -0.09 0.04 -0.0285714 -0.09
          -0.04 -0.0171429 -0.09 -0.0285714 -0.0171429 -0.09 -0.0171429 -0.0171429 -0.09 -0.00571429 -0.0171429 -0.09
          0.00571429 -0.0171429 -0.09 0.0171429 -0.0171429 -0.09 0.0285714 -0.0171429 -0.09 0.04 -0.0171429 -0.09
          -0.04 -0.00571429 -0.09 -0.0285714 -0.00571429 -0.09 -0.0171429 -0.00571429 -0.09 -0.00571429 -0.00571429 -0.09
          0.00571429 -0.00571429 -0.09 0.0171429 -0.00571429 -0.09 0.0285714 -0.00571429 -0.09 0.04 -0.00571429 -0.09
          -0.04 0.00571429 -0.09 -0.0285714 0.00571429 -0.09 -0.0171429 0.00571429 -0.09 -0.00571429 0.00571429 -0.09
          0.00571429 0.00571429 -0.09 0.0171429 0.00571429 -0.09 0.0285714 0.00571429 -0.09 0.04 0.00571429 -0.09
          -0.04 0.0171429 -0.09 -0.0285714 0.0171429 -0.09 -0.0171429 0.0171429 -0.09 -0.00571429 0.0171429 -0.09
          0.00571429 0.0171429 -0.09 0.0171429 0.0171429 -0.09 0.0285714 0.0171429 -0.09 0.04 0.0171429 -0.09
          -0.04 0.0285714 -0.09 -0.0285714 0.0285714 -0.09 -0.0171429 0.0285714 -0.09 -0.00571429 0.0285714 -0.09
          0.00571429 0.0285714 -0.09 0.0171429 0.0285714 -0.09 0.0285714 0.0285714 -0.09 0.04 0.0285714 -0.09
          -0.04 0.04 -0.09 -0.0285714 0.04 -0.09 -0.0171429 0.04 -0.09 -0.00571429 0.04 -0.09
          0.00571429 0.04 -0.09 0.0171429 0.04 -0.09 0.0285714 0.04 -0.09 0.04 0.04 -0.09
          -0.04 -0.04 -0.08 -0.0285714 -0.04 -0.08 -0.04 -0.0285714 -0.08 -0.0285714 -0.0285714 -0.08
          -0.0171429 -0.04 -0.08 -0.0171429 -0.0285714 -0.08 -0.00571429 -0.04 -0.08 -0.00571429 -0.0285714 -0.08
          0.00571429 -0.04 -0.08 0.00571429 -0.0285714 -0.08 0.0171429 -0.04 -0.08 0.0171429 -0.0285714 -0.08
          0.0285714 -0.04 -0.08 0.0285714 -0.0285714 -0.08 0.04 -0.04 -0.08 0.04 -0.0285714 -0.08
          -0.04 -0.0171429 -0.08 -0.0285714 -0.0171429 -0.08 -0.0171429 -0.0171429 -0.08 -0.00571429 -0.0171429 -0.08
          0.00571429 -0.0171429 -0.08 0.0171429 -0.0171429 -0.08 0.0285714 -0.0171429 -0.08 0.04 -0.0171429 -0.08
          -0.04 -0.00571429 -0.08 -0.0285714 -0.00571429 -0.08 -0.0171429 -0.00571429 -0.08 -0.00571429 -0.00571429 -0.08
          0.00571429 -0.00571429 -0.08 0.0171429 -0.00571429 -0.08 0.0285714 -0.00571429 -0.08 0.04 -0.00571429 -0.08