<?xml version="1.0"?>
<VTKFile type="UnstructuredGrid" version="0.1" byte_order="LittleEndian">
  <UnstructuredGrid>
    <Piece NumberOfCells="45" NumberOfPoints="96">
      <CellData Scalars="p (Pa)">
        <DataArray type="Float32" Name="p (Pa)" NumberOfComponents="1" format="ascii">
          92529.6 85862.2 91781.3 93105.4 87109.3 85962.2 94122.3 93114.6 92625.9 83335.7 -1.33805e+06 81081.2
          86315.4 -1.34378e+06 -1.33625e+06 92814.7 86325.9 84667.3 -1.34263e+06 -1.36592e+06 -1.35937e+06 82620.8 -1.35809e+06 -1.36088e+06
          92008.4 84066.1 80212 -993067 -1.36726e+06 -1.3661e+06 82748.6 -1.35845e+06 -1.353e+06 91862.1 83839.8 82702.9
          78719.8 -1.36533e+06 77226.1 83757.8 -1.35731e+06 81588.1 91841.3 84414.8 91225
        </DataArray>
        <DataArray type="Float32" Name="saturation" NumberOfComponents="1" format="ascii">
          0.11151 0.106567 0.110319 0.112703 0.106956 0.106594 0.115726 0.112724 0.11169 0.10603 0.100982 0.105721
          0.106696 0.100967 0.100987 0.112065 0.106699 0.10628 0.10097 0.100906 0.100924 0.105919 0.100927 0.10092
          0.110645 0.106159 0.105629 0.101927 0.100902 0.100905 0.105938 0.100926 0.100941 0.110432 0.106118 0.105931
          0.105497 0.100908 0.10539 0.106103 0.10093 0.105781 0.110402 0.106228 0.109623
        </DataArray>
        <DataArray type="Float32" Name="process rank" NumberOfComponents="1" format="ascii">
          0 0 0 0 0 0 0 0 0 0 0 0
          0 0 0 0 0 0 0 0 0 0 0 0
          0 0 0 0 0 0 0 0 0 0 0 0
          0 0 0 0 0 0 0 0 0
        </DataArray>
      </CellData>
      <Points>
        <DataArray type="Float32" Name="Coordinates" NumberOfComponents="3" format="ascii">
          -0.04 -0.04 -0.15 -0.0133333 -0.04 -0.15 -0.04 -0.0133333 -0.15 -0.0133333 -0.0133333 -0.15
          -0.04 -0.04 -0.12 -0.0133333 -0.04 -0.12 -0.04 -0.0133333 -0.12 -0.0133333 -0.0133333 -0.12
          0.0133333 -0.04 -0.15 0.0133333 -0.0133333 -0.15 0.0133333 -0.04 -0.12 0.0133333 -0.0133333 -0.12
          0.04 -0.04 -0.15 0.04 -0.0133333 -0.15 0.04 -0.04 -0.12 0.04 -0.0133333 -0.12
          -0.04 0.0133333 -0.15 -0.0133333 0.0133333 -0.15 -0.04 0.0133333 -0.12 -0.0133333 0.0133333 -0.12
          0.0133333 0.0133333 -0.15 0.0133333 0.0133333 -0.12 0.04 0.0133333 -0.15 0.04 0.0133333 -0.12
          -0.04 0.04 -0.15 -0.0133333 0.04 -0.15 -0.04 0.04 -0.12 -0.0133333 0.04 -0.12
          0.0133333 0.04 -0.15 0.0133333 0.04 -0.12 0.04 0.04 -0.15 0.04 0.04 -0.12
          -0.04 -0.04 -0.09 -0.0133333 -0.04 -0.09 -0.04 -0.0133333 -0.09 -0.0133333 -0.0133333 -0.09
          0.0133333 -0.04 -0.09 0.0133333 -0.0133333 -0.09 0.04 -0.04 -0.09 0.04 -0.0133333 -0.09
          -0.04 0.0133333 -0.09 -0.0133333 0.0133333 -0.09 0.0133333 0.0133333 -0.09 0.04 0.0133333 -0.09
          -0.04 0.04 -0.09 -0.0133333 0.04 -0.09 0.0133333 0.04 -0.09 0.04 0.04 -0.09
          -0.04 -0.04 -0.06 -0.0133333 -0.04 -0.06 -0.04 -0.0133333 -0.06 -0.0133333 -0.0133333 -0.06
          0.0133333 -0.04 -0.06 0.0133333 -0.0133333 -0.06 0.04 -0.04 -0.06 0.04 -0.0133333 -0.06
          -0.04 0.0133333 -0.06 -0.0133333 0.0133333 -0.06 0.0133333 0.0133333 -0.06 0.04 0.0133333 -0.06
          -0.04 0.04 -0.06 -0.0133333 0.04 -0.06 0.0133333 0.04 -0.06 0.04 0.04 -0.06
          -0.04 -0.04 -0.03 -0.0133333 -0.04 -0.03 -0.04 -0.0133333 -0.03 -0.0133333 -0.0133333 -0.03
          0.0133333 -0.04 -0.03 0.0133333 -0.0133333 -0.03 0.04 -0.04 -0.03 0.04 -0.0133333 -0.03
          -0.04 0.0133333 -0.03 -0.0133333 0.0133333 -0.03 0.0133333 0.0133333 -0.03 0.04 0.0133333 -0.03
          -0.04 0.04 -0.03 -0.0133333 0.04 -0.03 0.0133333 0.04 -0.03 0.04 0.04 -0.03
          -0.04 -0.04 0 -0.0133333 -0.04 0 -0.04 -0.0133333 0 -0.0133333 -0.0133333 0
          0.0133333 -0.04 0 0.0133333 -0.0133333 0 0.04 -0.04 0 0.04 -0.0133333 0
          -0.04 0.0133333 0 -0.0133333 0.0133333 0 0.0133333 0.0133333 0 0.04 0.0133333 0
          -0.04 0.04 0 -0.0133333 0.04 0 0.0133333 0.04 0 0.04 0.04 0
        </DataArray>
      </Points>
      <Cells>
        <DataArray type="Int32" Name="connectivity" NumberOfComponents="1" format="ascii">
          0 1 3 2 4 5 7 6 1 8 9 3
          5 10 11 7 8 12 13 9 10 14 15 11
          2 3 17 16 6 7 19 18 3 9 20 17
          7 11 21 19 9 13 22 20 11 15 23 21
          16 17 25 24 18 19 27 26 17 20 28 25
          19 21 29 27 20 22 30 28 21 23 31 29
          4 5 7 6 32 33 35 34 5 10 11 7
          33 36 37 35 10 14 15 11 36 38 39 37
          6 7 19 18 34 35 41 40 7 11 21 19
          35 37 42 41 11 15 23 21 37 39 43 42
          18 19 27 26 40 41 45 44 19 21 29 27
          41 42 46 45 21 23 31 29 42 43 47 46
          32 33 35 34 48 49 51 50 33 36 37 35
          49 52 53 51 36 38 39 37 52 54 55 53
          34 35 41 40 50 51 57 56 35 37 42 41
          51 53 58 57 37 39 43 42 53 55 59 58
          40 41 45 44 56 57 61 60 41 42 46 45
          57 58 62 61 42 43 47 46 58 59 63 62
          48 49 51 50 64 65 67 66 49 52 53 51
          65 68 69 67 52 54 55 53 68 70 71 69
          50 51 57 56 66 67 73 72 51 53 58 57
          67 69 74 73 53 55 59 58 69 71 75 74
          56 57 61 60 72 73 77 76 57 58 62 61
          73 74 78 77 58 59 63 62 74 75 79 78
          64 65 67 66 80 81 83 82 65 68 69 67
          81 84 85 83 68 70 71 69 84 86 87 85
          66 67 73 72 82 83 89 88 67 69 74 73
          83 85 90 89 69 71 75 74 85 87 91 90
          72 73 77 76 88 89 93 92 73 74 78 77
          89 90 94 93 74 75 79 78 90 91 95 94
        </DataArray>
        <DataArray type="Int32" Name="offsets" NumberOfComponents="1" format="ascii">
          8 16 24 32 40 48 56 64 72 80 88 96
          104 112 120 128 136 144 152 160 168 176 184 192
          200 208 216 224 232 240 248 256 264 272 280 288
          296 304 312 320 328 336 344 352 360
        </DataArray>
        <DataArray type="UInt8" Name="types" NumberOfComponents="1" format="ascii">
          12 12 12 12 12 12 12 12 12 12 12 12
          12 12 12 12 12 12 12 12 12 12 12 12
          12 12 12 12 12 12 12 12 12 12 12 12
          12 12 12 12 12 12 12 12 12
        </DataArray>
      </Cells>
    </Piece>
  </UnstructuredGrid>
</VTKFile>
