<?xml version="1.0"?><VTKFile type="PolyData" version="0.1" byte_order="LittleEndian">
<PolyData>
<Piece NumberOfLines="182" NumberOfPoints="31614">
<PointData Scalars=" PointData">
<DataArray type="Float32" Name="time" NumberOfComponents="1" format="ascii" >
0 0.045502 0.091099 0.136792 0.18258 0.228465 0.274446 0.302082 0.348219 0.394453 0.422241 0.468633 0.515124 0.543067 0.589716 0.636466 0.664565 0.711475 0.758487 0.786743 0.833917 0.881194 0.909609 0.95705 1.00459 1.03317 1.08088 1.1287 1.15744 1.20542 1.25351 1.28242 1.33067 1.37904 1.40811 1.45665 1.5053 1.53454 1.58336 1.63229 1.6617 1.71081 1.76003 1.78961 1.83901 1.88851 1.91827 1.96796 2.01776 2.0477 2.09768 2.14778 2.1779 2.22818 2.27858 2.30888 2.35947 2.41017 2.44065 2.49154 2.54256 2.57322 2.62443 2.67575 2.7066 2.75812 2.80976 2.84081 2.89264 2.9446 2.97584 3.028 3.08028 3.11171 3.1642 3.21681 3.24844 3.30125 3.3542 3.38603 3.43918 3.49246 3.52449 3.57798 3.6316 3.66383 3.71767 3.77163 3.80407 3.85825 3.91257 3.94522 3.99975 4.05442 4.08729 4.14218 4.1972 4.23029 4.28554 4.34093 4.37423 4.42985 4.4856 4.51913 4.57511 4.63125 4.66499 4.72136 4.77787 4.81184 4.86859 4.92548 4.95969 5.01682 5.0741 5.10854 5.16606 5.22373 5.25841 5.31633 5.3744 5.40932 5.46764 5.52612 5.56129 5.62002 5.6789 5.71431 5.77346 5.83276 5.86842 5.92799 5.98771 6.02363 6.08362 6.14377 6.17994 6.24037 6.30096 6.33739 6.39825 6.45928 6.49598 6.55728 6.61876 6.65573 6.71749 6.77942 6.81666 6.87887 6.94126 6.97878 7.04146 7.10432 7.14212 7.20527 7.26861 7.30669 7.37032 7.43414 7.47252 7.53663 7.60093 7.63961 7.70422 7.76902 7.80799 7.8731 7.9384 7.97768 8.0433 8.10911 8.1487 8.21484 8.28117 8.32107 8.38773 8.4546 8.49482 8.56201 8.62941 8.66995 8.73769 8.80564 8.84651 8.9148 8.9833 9.02451 9.09336 9.16242 9.20397 9.27339 9.34303 9.38492 9.45492 9.52514 9.56738 9.63797 9.70878 9.75138 9.82257 9.89399 9.93695 10.0087 10.0808 10.1241 10.1965 10.2692 10.3129 10.3859 10.4592 10.5033 10.577 10.6509 10.6954 10.7697 10.8443 10.8892 10.9642 11.0395 11.0848 11.1604 11.2364 11.2821 11.3584 11.4351 11.4812 11.5583 11.6356 11.6821 11.7599 11.838 11.885 11.9635 12.0423 12.0897 12.1689 12.2485 12.2963 12.3763 12.4566 12.505 12.5857 12.6668 12.7156 12.7972 12.879 12.9283 13.0107 13.0934 13.1431 13.2263 13.3098 13.36 13.4441 13.5284 13.5792 13.664 13.7492 13.8005 13.8862 13.9723 14.0241 14.1107 14.1977 14.25 14.3375 14.4254 14.4783 14.5667 14.6555 14.709 14.7984 14.8881 14.9421 15.0325 15.1232 15.1778 15.2692 15.3609 15.4161 15.5084 15.6011 15.657 15.7503 15.8441 15.9005 15.9949 16.0898 16.1469 16.2423 16.3382 16.396 16.4926 16.5896 16.648 16.7457 16.8439 16.903 17.0018 17.1011 17.1609 17.261 17.3615 17.422 17.5232 17.6249 17.6862 17.7887 17.8917 17.9537 18.0574 18.1617 18.2244 18.3295 18.435 18.4986 18.605 18.7119 18.7763 18.884 18.9923 19.0575 19.1667 19.2764 19.3425 19.453 19.5642 19.6312 19.7432 19.8559 19.9237 20.0373 20.1515 20.2203 20.3354 20.4511 20.5209 20.6376 20.755 20.8257 20.9441 21.0631 21.1349 21.2549 21.3757 21.4484 21.5703 21.6928 21.7666 21.8902 22.0145 22.0895 22.2149 22.3411 22.4172 22.5446 22.6727 22.7499 22.8793 23.0094 23.0878 23.2191 23.3513 23.431 23.5644 23.6987 23.7796 23.9152 24.0517 24.134 24.2718 24.4105 24.4942 24.6343 24.7753 24.8604 25.0029 25.1463 25.2329 25.3778 25.5238 25.6118 25.7593 25.9079 25.9975 26.1476 26.2988 26.39 26.5429 26.6969 26.7898 26.9456 27.1024 27.1971 27.3557 27.5156 27.6121 27.7738 27.9367 28.0351 28.2 28.3662 28.4665 28.6347 28.8042 28.9066 29.0783 29.2513 29.3558 29.531 29.7077 29.8144 29.9933 30.1738 30.2828 30.4657 30.6501 30.7615 30.9485 31.1371 31.251 31.4422 31.6351 31.7517 31.9474 32.1449 32.2642 32.4645 32.6667 32.789 32.9942 33.2014 33.3267 33.5371 33.7496 33.878 34.0938 34.3118 34.4436 34.6651 34.8889 35.0243 35.2518 35.4817 35.6208 35.8547 36.0911 36.2341 36.4747 36.7179 36.8652 37.1128 37.3633 37.515 37.7702 38.0284 38.1848 38.448 38.7144 38.8758 39.1475 39.4227 39.5894 39.8703 40.1547 40.3272 40.6177 40.9122 41.0908 41.3917 41.6969 41.882 42.1942 42.5108 42.7031 43.0273 43.3564 43.5562 43.8934 44.236 44.4441 44.7954 45.1525 45.3696 45.7363 46.1093 46.3362 46.7196 47.11 47.3475 47.7494 48.1587 48.4081 48.8301 49.2605 49.5228 49.9672 50.4208 50.6976 51.1668 51.6463 51.9392 52.4362 52.9448 53.2558 53.7841 54.3255 54.6569 55.2207 55.7995 56.1543 56.7587 57.3803 57.762 58.4133 59.0847 59.4977 60.2039 60.9336 61.3835 62.1545 62.9538 63.4479 64.2969 65.1804 65.7281 66.6728 67.6602 68.2748 69.3394 70.4585 71.1586 72.3778 73.6692 74.4824 75.9089 77.4353 78.4051 80.124 81.9899 83.1912 85.3532 87.7532 89.3312 92.2446 95.6079 99.5858 104.454 110.731 119.578 134.701 154 0.491866 0.617256 0.74343 0.8704 0.998175 1.12676 1.25618 1.38643 1.51753 1.64949 1.78232 1.91603 2.05063 2.18614 2.32257 2.43238 2.57049 2.70955 2.82149 2.9623 3.10411 3.21827 3.36189 3.50654 3.62302 3.76956 3.91718 4.03606 4.18566 4.33637 4.45775 4.61052 4.76446 4.88846 5.04454 5.20184 5.32857 5.48811 5.64892 5.77851 5.94167 6.10616 6.23872 6.40567 6.574 6.7097 6.8806 7.05297 7.19194 7.36701 7.54361 7.68601 7.86544 8.04649 8.1925 8.37652 8.56224 8.71205 8.9009 9.09153 9.24535 9.43929 9.63511 9.79315 9.99246 10.1938 10.3563 10.5612 10.7683 10.9356 11.1466 11.3598 11.532 11.7494 11.9691 12.1467 12.3708 12.5975 12.7806 13.012 13.246 13.4352 13.6743 13.9162 14.1118 14.359 14.6093 14.8119 15.0679 15.3272 15.5371 15.8026 16.0716 16.2895 16.5651 16.8446 17.071 17.3577 17.6484 17.8841 18.1826 18.4856 18.7314 19.0428 19.3591 19.6158 19.9414 20.2722 20.5409 20.8819 21.2287 21.5105 21.8684 22.2328 22.5292 22.9058 23.2896 23.602 23.9995 24.4049 24.7353 25.1559 25.5856 25.936 26.3828 26.8398 27.2129 27.6893 28.1772 28.5763 29.0864 29.6098 30.0386 30.5876 31.1521 31.6153 32.2098 32.8223 33.3261 33.974 34.6435 35.1956 35.9077 36.6459 37.2565 38.0468 38.8694 39.5525 40.4403 41.3691 42.1442 43.1569 44.2233 45.119 46.2977 47.5497 48.6104 50.0201 51.5359 52.8363 54.5896 56.5101 58.6331 61.0064 63.6971 66.8032 70.477 74.9733 80.7701 88.9403 102.907 154 0.613079 0.738468 0.864643 0.991612 1.11939 1.24798 1.37739 1.50765 1.63875 1.7707 1.90353 2.03724 2.17185 2.30735 2.44378 2.55359 2.6917 2.83076 2.9427 3.08352 3.22532 3.33948 3.4831 3.62776 3.74423 3.89078 4.0384 4.15728 4.30687 4.45758 4.57897 4.73173 4.88567 5.00967 5.16575 5.32305 5.44978 5.60932 5.77014 5.89972 6.06288 6.22737 6.35993 6.52688 6.69522 6.83091 7.00182 7.17419 7.31315 7.48822 7.66482 7.80722 7.98665 8.1677 8.31371 8.49773 8.68345 8.83326 9.02211 9.21275 9.36656 9.5605 9.75633 9.91437 10.1137 10.315 10.4775 10.6825 10.8896 11.0568 11.2678 11.481 11.6532 11.8706 12.0903 12.2679 12.492 12.7187 12.9019 13.1332 13.3672 13.5564 13.7955 14.0374 14.233 14.4802 14.7306 14.9331 15.1891 15.4484 15.6583 15.9238 16.1929 16.4107 16.6863 16.9658 17.1922 17.4789 17.7696 18.0053 18.3038 18.6068 18.8526 19.164 19.4804 19.7371 20.0626 20.3935 20.6621 21 21.3468 21.6317 21.9896 22.354 22.6504 23.027 23.4108 23.7232 24.1207 24.5261 24.8565 25.2772 25.7068 26.0573 26.5041 26.961 27.3341 27.8105 28.2984 28.6975 29.2076 29.731 30.1598 30.7089 31.2733 31.7366 32.331 32.9435 33.4473 34.0952 34.7647 35.3168 36.0289 36.7671 37.3777 38.168 38.9906 39.6737 40.5615 41.4903 42.2654 43.2781 44.3445 45.2402 46.4189 47.6709 48.7317 50.1413 51.6571 52.9575 54.7108 56.6313 58.7543 61.1276 63.8183 66.9244 70.5982 75.0946 80.8914 89.0615 103.028 154 0.734969 0.860358 0.986532 1.1135 1.24128 1.36987 1.49928 1.62954 1.76064 1.89259 2.02542 2.15913 2.29374 2.42924 2.56567 2.67548 2.81359 2.95265 3.06459 3.20541 3.34721 3.46137 3.60499 3.74965 3.86612 4.01267 4.16029 4.27917 4.42876 4.57947 4.70085 4.85362 5.00756 5.13156 5.28764 5.44494 5.57167 5.73121 5.89203 6.02161 6.18477 6.34926 6.48182 6.64877 6.81711 6.9528 7.12371 7.29608 7.43504 7.61011 7.78671 7.92911 8.10854 8.28959 8.4356 8.61962 8.80534 8.95515 9.144 9.33464 9.48845 9.68239 9.87821 10.0363 10.2356 10.4369 10.5994 10.8044 11.0114 11.1787 11.3897 11.6029 11.7751 11.9925 12.2122 12.3898 12.6139 12.8406 13.0237 13.2551 13.4891 13.6783 13.9174 14.1593 14.3549 14.6021 14.8524 15.055 15.311 15.5703 15.7802 16.0457 16.3147 16.5326 16.8082 17.0877 17.3141 17.6008 17.8915 18.1272 18.4257 18.7287 18.9745 19.2859 19.6023 19.8589 20.1845 20.5154 20.784 21.125 21.4718 21.7536 22.1115 22.4759 22.7723 23.1489 23.5327 23.8451 24.2426 24.648 24.9784 25.399 25.8287 26.1791 26.6259 27.0829 27.456 27.9324 28.4203 28.8194 29.3295 29.8529 30.2817 30.8307 31.3952 31.8584 32.4529 33.0654 33.5692 34.2171 34.8866 35.4387 36.1508 36.889 37.4996 38.2899 39.1125 39.7956 40.6834 41.6122 42.3873 43.4 44.4664 45.3621 46.5408 47.7928 48.8535 50.2632 51.779 53.0794 54.8327 56.7532 58.8762 61.2495 63.9402 67.0463 70.7201 75.2164 81.0132 89.1834 103.15 154 0.857543 0.982932 1.10911 1.23608 1.36385 1.49244 1.62186 1.75211 1.88321 2.01517 2.148 2.28171 2.41631 2.55182 2.68824 2.79805 2.93616 3.07522 3.18717 3.32798 3.46978 3.58395 3.72757 3.87222 3.98869 4.13524 4.28286 4.40174 4.55133 4.70204 4.82343 4.9762 5.13013 5.25413 5.41021 5.56751 5.69424 5.85379 6.0146 6.14418 6.30734 6.47183 6.6044 6.77134 6.93968 7.07537 7.24628 7.41865 7.55762 7.73268 7.90928 8.05169 8.23112 8.41216 8.55818 8.7422 8.92791 9.07773 9.26658 9.45721 9.61103 9.80497 10.0008 10.1588 10.3581 10.5594 10.7219 10.9269 11.134 11.3012 11.5122 11.7255 11.8977 12.1151 12.3348 12.5123 12.7365 12.9631 13.1463 13.3777 13.6117 13.8009 14.0399 14.2818 14.4775 14.7247 14.975 15.1775 15.4336 15.6929 15.9028 16.1683 16.4373 16.6552 16.9308 17.2103 17.4367 17.7233 18.0141 18.2498 18.5483 18.8513 19.097 19.4085 19.7248 19.9815 20.307 20.6379 20.9066 21.2476 21.5944 21.8762 22.2341 22.5985 22.8948 23.2715 23.6553 23.9677 24.3652 24.7706 25.1009 25.5216 25.9513 26.3017 26.7485 27.2055 27.5786 28.055 28.5429 28.9419 29.4521 29.9755 30.4042 30.9533 31.5178 31.981 32.5755 33.188 33.6917 34.3397 35.0092 35.5613 36.2734 37.0116 37.6222 38.4125 39.2351 39.9182 40.806 41.7347 42.5098 43.5226 44.589 45.4847 46.6634 47.9153 48.9761 50.3858 51.9015 53.202 54.9553 56.8758 58.9988 61.3721 64.0628 67.1689 70.8427 75.339 81.1358 89.3059 103.273 154 0.98081 1.1062 1.23237 1.35934 1.48712 1.61571 1.74512 1.87538 2.00648 2.13844 2.27126 2.40497 2.53958 2.67508 2.81151 2.92132 3.05943 3.19849 3.31044 3.45125 3.59305 3.70721 3.85083 3.99549 4.11196 4.25851 4.40613 4.52501 4.6746 4.82531 4.9467 5.09946 5.2534 5.3774 5.53348 5.69078 5.81751 5.97705 6.13787 6.26745 6.43061 6.5951 6.72767 6.89461 7.06295 7.19864 7.36955 7.54192 7.68088 7.85595 8.03255 8.17495 8.35439 8.53543 8.68144 8.86546 9.05118 9.20099 9.38984 9.58048 9.7343 9.92823 10.1241 10.2821 10.4814 10.6827 10.8452 11.0502 11.2573 11.4245 11.6355 11.8487 12.021 12.2383 12.4581 12.6356 12.8597 13.0864 13.2696 13.5009 13.735 13.9242 14.1632 14.4051 14.6007 14.848 15.0983 15.3008 15.5568 15.8162 16.0261 16.2916 16.5606 16.7784 17.0541 17.3336 17.56 17.8466 18.1374 18.373 18.6716 18.9746 19.2203 19.5318 19.8481 20.1048 20.4303 20.7612 21.0299 21.3708 21.7176 21.9995 22.3574 22.7218 23.0181 23.3947 23.7786 24.091 24.4884 24.8939 25.2242 25.6449 26.0745 26.425 26.8718 27.3287 27.7019 28.1783 28.6662 29.0652 29.5754 30.0988 30.5275 31.0766 31.641 32.1043 32.6987 33.3112 33.815 34.463 35.1325 35.6846 36.3966 37.1348 37.7455 38.5358 39.3583 40.0415 40.9293 41.858 42.6331 43.6459 44.7123 45.608 46.7867 48.0386 49.0994 50.5091 52.0248 53.3253 55.0785 56.999 59.122 61.4954 64.186 67.2922 70.9659 75.4623 81.2591 89.4292 103.396 154 1.10478 1.23017 1.35634 1.48331 1.61109 1.73968 1.86909 1.99934 2.13044 2.2624 2.39523 2.52894 2.66354 2.79905 2.93548 3.04529 3.1834 3.32246 3.4344 3.57521 3.71702 3.83118 3.9748 4.11945 4.23593 4.38247 4.53009 4.64897 4.79857 4.94928 5.07066 5.22343 5.37737 5.50137 5.65745 5.81475 5.94148 6.10102 6.26183 6.39142 6.55458 6.71907 6.85163 7.01858 7.18691 7.32261 7.49351 7.66588 7.80485 7.97992 8.15652 8.29892 8.47835 8.6594 8.80541 8.98943 9.17515 9.32496 9.51381 9.70444 9.85826 10.0522 10.248 10.4061 10.6054 10.8067 10.9692 11.1742 11.3813 11.5485 11.7595 11.9727 12.1449 12.3623 12.582 12.7596 12.9837 13.2104 13.3936 13.6249 13.8589 14.0481 14.2872 14.5291 14.7247 14.9719 15.2223 15.4248 15.6808 15.9401 16.15 16.4155 16.6846 16.9024 17.178 17.4575 17.6839 17.9706 18.2613 18.497 18.7955 19.0985 19.3443 19.6557 19.9721 20.2287 20.5543 20.8852 21.1538 21.4948 21.8416 22.1234 22.4813 22.8457 23.1421 23.5187 23.9025 24.2149 24.6124 25.0178 25.3482 25.7689 26.1985 26.5489 26.9958 27.4527 27.8258 28.3022 28.7901 29.1892 29.6993 30.2227 30.6515 31.2005 31.765 32.2283 32.8227 33.4352 33.939 34.5869 35.2564 35.8085 36.5206 37.2588 37.8694 38.6597 39.4823 40.1654 41.0532 41.982 42.7571 43.7698 44.8362 45.7319 46.9106 48.1626 49.2234 50.633 52.1488 53.4492 55.2025 57.123 59.246 61.6193 64.31 67.4161 71.0899 75.5863 81.3831 89.5532 103.52 154 1.22945 1.35484 1.48102 1.60799 1.73576 1.86435 1.99377 2.12402 2.25512 2.38708 2.51991 2.65362 2.78822 2.92373 3.06015 3.16996 3.30807 3.44713 3.55908 3.69989 3.84169 3.95586 4.09948 4.24413 4.3606 4.50715 4.65477 4.77365 4.92324 5.07395 5.19534 5.34811 5.50204 5.62604 5.78212 5.93942 6.06615 6.2257 6.38651 6.51609 6.67925 6.84374 6.97631 7.14325 7.31159 7.44728 7.61819 7.79056 7.92953 8.10459 8.28119 8.4236 8.60303 8.78407 8.93009 9.11411 9.29982 9.44964 9.63849 9.82912 9.98294 10.1769 10.3727 10.5307 10.73 10.9313 11.0938 11.2988 11.5059 11.6732 11.8841 12.0974 12.2696 12.487 12.7067 12.8842 13.1084 13.335 13.5182 13.7496 13.9836 14.1728 14.4118 14.6537 14.8494 15.0966 15.3469 15.5494 15.8055 16.0648 16.2747 16.5402 16.8092 17.0271 17.3027 17.5822 17.8086 18.0952 18.386 18.6217 18.9202 19.2232 19.469 19.7804 20.0967 20.3534 20.679 21.0098 21.2785 21.6195 21.9663 22.2481 22.606 22.9704 23.2667 23.6434 24.0272 24.3396 24.7371 25.1425 25.4728 25.8935 26.3232 26.6736 27.1204 27.5774 27.9505 28.4269 28.9148 29.3138 29.824 30.3474 30.7761 31.3252 31.8897 32.3529 32.9474 33.5599 34.0636 34.7116 35.3811 35.9332 36.6453 37.3835 37.9941 38.7844 39.607 40.2901 41.1779 42.1066 42.8817 43.8945 44.9609 45.8566 47.0353 48.2873 49.348 50.7577 52.2734 53.5739 55.3272 57.2477 59.3707 61.744 64.4347 67.5408 71.2146 75.7109 81.5077 89.6778 103.645 154 1.35484 1.48023 1.60641 1.73338 1.86115 1.98974 2.11916 2.24941 2.38051 2.51247 2.6453 2.77901 2.91361 3.04912 3.18555 3.29535 3.43346 3.57253 3.68447 3.82528 3.96708 4.08125 4.22487 4.36952 4.486 4.63254 4.78016 4.89904 5.04863 5.19935 5.32073 5.4735 5.62743 5.75143 5.90752 6.06482 6.19155 6.35109 6.5119 6.64148 6.80464 6.96913 7.1017 7.26864 7.43698 7.57267 7.74358 7.91595 8.05492 8.22999 8.40659 8.54899 8.72842 8.90946 9.05548 9.2395 9.42521 9.57503 9.76388 9.95451 10.1083 10.3023 10.4981 10.6561 10.8554 11.0567 11.2192 11.4242 11.6313 11.7985 12.0095 12.2228 12.395 12.6124 12.8321 13.0096 13.2338 13.4604 13.6436 13.875 14.109 14.2982 14.5372 14.7791 14.9748 15.222 15.4723 15.6748 15.9309 16.1902 16.4001 16.6656 16.9346 17.1525 17.4281 17.7076 17.934 18.2206 18.5114 18.7471 19.0456 19.3486 19.5943 19.9058 20.2221 20.4788 20.8043 21.1352 21.4039 21.7449 22.0917 22.3735 22.7314 23.0958 23.3921 23.7688 24.1526 24.465 24.8625 25.2679 25.5982 26.0189 26.4486 26.799 27.2458 27.7028 28.0759 28.5523 29.0402 29.4392 29.9494 30.4728 30.9015 31.4506 32.0151 32.4783 33.0728 33.6853 34.189 34.837 35.5065 36.0586 36.7707 37.5089 38.1195 38.9098 39.7324 40.4155 41.3033 42.232 43.0071 44.0199 45.0863 45.982 47.1607 48.4126 49.4734 50.8831 52.3988 53.6993 55.4526 57.3731 59.4961 61.8694 64.5601 67.6662 71.34 75.8363 81.6331 89.8032 103.77 154 1.48096 1.60635 1.73253 1.8595 1.98727 2.11586 2.24528 2.37553 2.50663 2.63859 2.77142 2.90513 3.03973 3.17524 3.31166 3.42147 3.55958 3.69864 3.81059 3.9514 4.0932 4.20737 4.35099 4.49564 4.61211 4.75866 4.90628 5.02516 5.17475 5.32546 5.44685 5.59962 5.75355 5.87755 6.03363 6.19093 6.31766 6.4772 6.63802 6.7676 6.93076 7.09525 7.22782 7.39476 7.5631 7.69879 7.8697 8.04207 8.18104 8.3561 8.5327 8.67511 8.85454 9.03558 9.1816 9.36562 9.55133 9.70115 9.88999 10.0806 10.2344 10.4284 10.6242 10.7822 10.9816 11.1829 11.3454 11.5503 11.7574 11.9247 12.1357 12.3489 12.5211 12.7385 12.9582 13.1358 13.3599 13.5866 13.7697 14 14.234 14.4243 14.6634 14.9052 15.1009 15.3481 15.5984 15.801 16.057 16.3163 16.5262 16.7917 17.0607 17.2786 17.5542 17.8337 18.0601 18.3467 18.6375 18.8732 19.1717 19.4747 19.7205 20.0319 20.3482 20.6049 20.9305 21.2613 21.53 21.871 22.2178 22.4996 22.8575 23.2219 23.5182 23.8949 24.2787 24.5911 24.9886 25.394 25.7244 26.145 26.5747 26.9251 27.3719 27.8289 28.202 28.6784 29.1663 29.5654 30.0755 30.5989 31.0277 31.5767 32.1412 32.6044 33.1989 33.8114 34.3152 34.9631 35.6326 36.1847 36.8968 37.635 38.2456 39.0359 39.8585 40.5416 41.4294 42.3582 43.1332 44.146 45.2124 46.1081 47.2868 48.5388 49.5995 51.0092 52.525 53.8254 55.5787 57.4992 59.6222 61.9955 64.6862 67.7923 71.4661 75.9624 81.7592 89.9294 103.896 154 1.60781 1.7332 1.85938 1.98635 2.11412 2.24271 2.37213 2.50238 2.63348 2.76544 2.89827 3.03198 3.16658 3.30209 3.43851 3.54832 3.68643 3.82549 3.93744 4.07825 4.22005 4.33422 4.47784 4.62249 4.73896 4.88551 5.03313 5.15201 5.3016 5.45231 5.5737 5.72647 5.8804 6.0044 6.16048 6.31778 6.44451 6.60405 6.76487 6.89445 7.05761 7.2221 7.35467 7.52161 7.68995 7.82564 7.99655 8.16892 8.30789 8.48295 8.65955 8.80196 8.98139 9.16243 9.30845 9.49247 9.67818 9.828 10.0168 10.2075 10.3613 10.5552 10.7511 10.9091 11.1084 11.3097 11.4722 11.6772 11.8843 12.0515 12.2625 12.4757 12.648 12.8653 13.0851 13.2626 13.4867 13.7134 13.8966 14.1279 14.362 14.5512 14.7902 15.0321 15.2277 15.475 15.7253 15.9278 16.1838 16.4432 16.6531 16.9186 17.1876 17.4054 17.6811 17.9606 18.187 18.4736 18.7644 19 19.2986 19.6016 19.8473 20.1588 20.4751 20.7318 21.0573 21.3882 21.6569 21.9978 22.3446 22.6265 22.9844 23.3488 23.6451 24.0217 24.4056 24.718 25.1154 25.5209 25.8512 26.2719 26.7015 27.052 27.4988 27.9557 28.3289 28.8053 29.2932 29.6922 30.2024 30.7258 31.1545 31.7036 32.268 32.7313 33.3257 33.9382 34.442 35.09 35.7595 36.3116 37.0236 37.7618 38.3725 39.1628 39.9853 40.6685 41.5563 42.485 43.2601 44.2729 45.3393 46.235 47.4137 48.6656 49.7264 51.1361 52.6518 53.9523 55.7055 57.626 59.749 62.1224 64.813 67.9192 71.593 76.0893 81.8861 90 103.911 154 1.7354 1.86079 1.98697 2.11394 2.24171 2.3703 2.49972 2.62997 2.76107 2.89303 3.02586 3.15957 3.29417 3.42968 3.5661 3.67591 3.81402 3.95309 4.06503 4.20584 4.34764 4.46181 4.60543 4.75008 4.86656 5.0131 5.16072 5.2796 5.42919 5.5799 5.70129 5.85406 6.00799 6.13199 6.28808 6.44538 6.57211 6.73165 6.89246 7.02204 7.1852 7.34969 7.48226 7.6492 7.81754 7.95323 8.12414 8.29651 8.43548 8.61054 8.78714 8.92955 9.10898 9.29002 9.43604 9.62006 9.80577 9.95559 10.1444 10.3351 10.4889 10.6828 10.8787 11.0367 11.236 11.4373 11.5998 11.8048 12.0119 12.1791 12.3901 12.6033 12.7756 12.9929 13.2127 13.3902 13.6143 13.841 14.0242 14.2555 14.4896 14.6788 14.9178 15.1597 15.3553 15.6026 15.8529 16.0554 16.3114 16.5708 16.7807 17.0462 17.3152 17.533 17.8087 18.0882 18.3146 18.6012 18.892 19.1276 19.4262 19.7292 19.9749 20.2864 20.6027 20.8594 21.1849 21.5158 21.7845 22.1254 22.4722 22.7541 23.112 23.4764 23.7727 24.1493 24.5332 24.8456 25.243 25.6485 25.9788 26.3995 26.8291 27.1796 27.6264 28.0833 28.4565 28.9329 29.4208 29.8198 30.33 30.8534 31.2821 31.8312 32.3956 32.8589 33.4533 34.0658 34.5696 35.2176 35.8871 36.4392 37.1512 37.8894 38.5001 39.2904 40.1129 40.796 41.6839 42.6126 43.3877 44.4005 45.4669 46.3626 47.5413 48.7932 49.854 51.2636 52.7794 54.0798 55.8331 57.7536 59.8766 62.25 64.9406 68.0468 71.7205 76.2169 82.0137 90.1838 104.151 154 1.86375 1.98914 2.11531 2.24228 2.37005 2.49864 2.62806 2.75831 2.88941 3.02137 3.1542 3.28791 3.42251 3.55802 3.69445 3.80426 3.94237 4.08143 4.19337 4.33418 4.47599 4.59015 4.73377 4.87842 4.9949 5.14144 5.28906 5.40794 5.55754 5.70825 5.82963 5.9824 6.13634 6.26034 6.41642 6.57372 6.70045 6.85999 7.0208 7.15039 7.31355 7.47804 7.6106 7.77755 7.94588 8.08158 8.25248 8.42485 8.56382 8.73889 8.91549 9.05789 9.23732 9.41837 9.56438 9.7484 9.93412 10.0839 10.2728 10.4634 10.6172 10.8112 11.007 11.165 11.3643 11.5656 11.7281 11.9331 12.1402 12.3074 12.5184 12.7317 12.9039 13.1213 13.341 13.5185 13.7427 13.9693 14.1525 14.3839 14.6179 14.8071 15.0461 15.288 15.4837 15.7309 15.9812 16.1837 16.4398 16.6991 16.909 17.1745 17.4435 17.6614 17.937 18.2165 18.4429 18.7295 19.0203 19.256 19.5545 19.8575 20.1033 20.4147 20.731 20.9877 21.3133 21.6441 21.9128 22.2538 22.6006 22.8824 23.2403 23.6047 23.901 24.2777 24.6615 24.9739 25.3714 25.7768 26.1071 26.5278 26.9575 27.3079 27.7547 28.2117 28.5848 29.0612 29.5491 29.9481 30.4583 30.9817 31.4104 31.9595 32.524 32.9872 33.5817 34.1942 34.6979 35.3459 36.0154 36.5675 37.2796 38.0178 38.6284 39.4187 40.2413 40.9244 41.8122 42.7409 43.516 44.5288 45.5952 46.4909 47.6696 48.9216 49.9823 51.392 52.9077 54.2082 55.9615 57.882 60 62.3727 65.0626 68.1676 71.8399 76.334 82.1271 90.2897 104.234 154 1.99285 2.11824 2.24441 2.37138 2.49916 2.62775 2.75716 2.88742 3.01852 3.15047 3.2833 3.41701 3.55162 3.68712 3.82355 3.93336 4.07147 4.21053 4.32247 4.46329 4.60509 4.71925 4.86287 5.00753 5.124 5.27055 5.41817 5.53705 5.68664 5.83735 5.95874 6.1115 6.26544 6.38944 6.54552 6.70282 6.82955 6.98909 7.14991 7.27949 7.44265 7.60714 7.7397 7.90665 8.07499 8.21068 8.38159 8.55396 8.69292 8.86799 9.04459 9.18699 9.36642 9.54747 9.69348 9.8775 10.0632 10.213 10.4019 10.5925 10.7463 10.9403 11.1361 11.2941 11.4934 11.6947 11.8572 12.0622 12.2693 12.4365 12.6475 12.8608 13.033 13.2504 13.4701 13.6476 13.8718 14.0984 14.2816 14.513 14.747 14.9362 15.1752 15.4171 15.6128 15.86 16.1103 16.3128 16.5689 16.8282 17.0381 17.3036 17.5726 17.7905 18.0661 18.3456 18.572 18.8586 19.1494 19.3851 19.6836 19.9866 20.2324 20.5438 20.8601 21.1168 21.4424 21.7732 22.0419 22.3829 22.7297 23.0115 23.3694 23.7338 24.0301 24.4068 24.7906 25.103 25.5005 25.9059 26.2362 26.6569 27.0866 27.437 27.8838 28.3408 28.7139 29.1903 29.6782 30.0772 30.5874 31.1108 31.5395 32.0886 32.6531 33.1163 33.7108 34.3233 34.827 35.475 36.1445 36.6966 37.4087 38.1469 38.7575 39.5478 40.3704 41.0535 41.9413 42.87 43.6451 44.6579 45.7243 46.62 47.7987 49.0507 50.1114 51.5211 53.0368 54.3373 56.0906 58.0111 60.1341 62.5074 65.1981 68.3042 71.978 76.4743 82.2711 90.4412 104.408 154 2.12272 2.24811 2.37428 2.50125 2.62903 2.75762 2.88703 3.01729 3.14839 3.28034 3.41317 3.54688 3.68149 3.81699 3.95342 4.06323 4.20134 4.3404 4.45234 4.59316 4.73496 4.84912 4.99274 5.1374 5.25387 5.40042 5.54804 5.66692 5.81651 5.96722 6.08861 6.24137 6.39531 6.51931 6.67539 6.83269 6.95942 7.11896 7.27978 7.40936 7.57252 7.73701 7.86958 8.03652 8.20486 8.34055 8.51146 8.68383 8.82279 8.99786 9.17446 9.31686 9.49629 9.67734 9.82335 10.0074 10.1931 10.3429 10.5318 10.7224 10.8762 11.0701 11.266 11.424 11.6233 11.8246 11.9871 12.1921 12.3992 12.5664 12.7774 12.9906 13.1629 13.3802 13.6 13.7775 14 14.2266 14.4115 14.6428 14.8769 15.0661 15.3051 15.547 15.7426 15.9899 16.2402 16.4427 16.6987 16.9581 17.168 17.4335 17.7025 17.9203 18.196 18.4755 18.7019 18.9885 19.2793 19.515 19.8135 20.1165 20.3622 20.6737 20.99 21.2467 21.5722 21.9031 22.1718 22.5127 22.8596 23.1414 23.4993 23.8637 24.16 24.5367 24.9205 25.2329 25.6303 26.0358 26.3661 26.7868 27.2164 27.5669 28.0137 28.4706 28.8438 29.3202 29.8081 30.2071 30.7173 31.2407 31.6694 32.2185 32.783 33.2462 33.8406 34.4531 34.9569 35.6049 36.2744 36.8265 37.5386 38.2767 38.8874 39.6777 40.5002 41.1834 42.0712 42.9999 43.775 44.7878 45.8542 46.7499 47.9286 49.1805 50.2413 51.651 53.1667 54.4672 56.2204 58.1409 60.264 62.6373 65.3279 68.4341 72.1079 76.6042 82.401 90.5711 104.538 154 2.25337 2.37876 2.50493 2.6319 2.75968 2.88827 3.01768 3.14793 3.27903 3.41099 3.54382 3.67753 3.81213 3.94764 4.08407 4.19388 4.33199 4.47105 4.58299 4.7238 4.86561 4.97977 5.12339 5.26804 5.38452 5.53107 5.67869 5.79756 5.94716 6.09787 6.21925 6.37202 6.52596 6.64996 6.80604 6.96334 7.09007 7.24961 7.41043 7.54001 7.70317 7.86766 8.00022 8.16717 8.33551 8.4712 8.6421 8.81448 8.95344 9.12851 9.30511 9.44751 9.62694 9.80799 9.954 10.138 10.3237 10.4736 10.6624 10.853 11.0069 11.2008 11.3966 11.5547 11.754 11.9553 12.1178 12.3228 12.5298 12.6971 12.9081 13.1213 13.2935 13.5109 13.7306 13.9082 14.1323 14.359 14.5421 14.7735 15.0075 15.1967 15.4358 15.6777 15.8733 16.1205 16.3708 16.5734 16.8294 17.0887 17.2986 17.5641 17.8331 18.051 18.3266 18.6061 18.8325 19.1192 19.4099 19.6456 19.9441 20.2471 20.4929 20.8043 21.1206 21.3773 21.7029 22.0338 22.3024 22.6434 22.9902 23.272 23.6299 23.9943 24.2907 24.6673 25.0511 25.3635 25.761 26.1664 26.4968 26.9174 27.3471 27.6975 28.1443 28.6013 28.9744 29.4508 29.9387 30.3378 30.8479 31.3713 31.8001 32.3491 32.9136 33.3768 33.9713 34.5838 35.0876 35.7355 36.405 36.9571 37.6692 38.4074 39.018 39.8083 40.6309 41.314 42.2018 43.1306 43.9057 44.9184 45.9848 46.8805 48.0592 49.3112 50.3719 51.7816 53.2974 54.5978 56.3511 58.2716 60.3946 62.7679 65.4586 68.5647 72.2385 76.7348 82.5316 90.7018 104.669 154 2.3848 2.51019 2.63637 2.76334 2.89111 3.0197 3.14912 3.27937 3.41047 3.54243 3.67526 3.80897 3.94357 4.07908 4.2155 4.32531 4.46342 4.60248 4.71443 4.85524 4.99704 5.11121 5.25483 5.39948 5.51595 5.6625 5.81012 5.929 6.07859 6.2293 6.35069 6.50346 6.65739 6.78139 6.93747 7.09477 7.2215 7.38105 7.54186 7.67144 7.8346 7.99909 8.13166 8.2986 8.46694 8.60263 8.77354 8.94591 9.08488 9.25994 9.43654 9.57895 9.75838 9.93942 10.0854 10.2695 10.4552 10.605 10.7938 10.9845 11.1383 11.3322 11.528 11.6861 11.8854 12.0867 12.2492 12.4542 12.6613 12.8285 13.0395 13.2527 13.4249 13.6423 13.8621 14.0396 14.2637 14.4904 14.6736 14.9049 15.139 15.3282 15.5672 15.8091 16.0047 16.252 16.5023 16.7048 16.9608 17.2202 17.4301 17.6955 17.9646 18.1824 18.4581 18.7376 18.964 19.2506 19.5414 19.777 20.0756 20.3786 20.6243 20.9358 21.2521 21.5088 21.8343 22.1652 22.4339 22.7748 23.1216 23.4035 23.7614 24.1258 24.4221 24.7987 25.1826 25.495 25.8924 26.2979 26.6282 27.0489 27.4785 27.829 28.2758 28.7327 29.1059 29.5823 30.0702 30.4692 30.9793 31.5028 31.9315 32.4806 33.045 33.5083 34.1027 34.7152 35.219 35.867 36.5365 37.0886 37.8006 38.5388 39.1495 39.9398 40.7623 41.4454 42.3333 43.262 44.0371 45.0499 46.1162 47.012 48.1907 49.4426 50.5034 51.913 53.4288 54.7292 56.4825 58.403 60.526 62.8994 65.59 68.6962 72.3699 76.8663 82.6631 90.8332 104.8 154 2.51703 2.64242 2.7686 2.89557 3.02334 3.15193 3.28135 3.4116 3.5427 3.67466 3.80749 3.9412 4.0758 4.21131 4.34774 4.45754 4.59565 4.73472 4.84666 4.98747 5.12927 5.24344 5.38706 5.53171 5.64819 5.79473 5.94235 6.06123 6.21082 6.36154 6.48292 6.63569 6.78962 6.91362 7.06971 7.22701 7.35374 7.51328 7.67409 7.80367 7.96683 8.13132 8.26389 8.43083 8.59917 8.73486 8.90577 9.07814 9.21711 9.39217 9.56878 9.71118 9.89061 10.0717 10.2177 10.4017 10.5874 10.7372 10.9261 11.1167 11.2705 11.4645 11.6603 11.8183 12.0176 12.2189 12.3814 12.5864 12.7935 12.9607 13.1717 13.385 13.5572 13.7746 13.9943 14.1718 14.396 14.6226 14.8058 15.0372 15.2712 15.4604 15.6994 15.9413 16.137 16.3842 16.6345 16.837 17.0931 17.3524 17.5623 17.8278 18.0968 18.3147 18.5903 18.8698 19.0962 19.3828 19.6736 19.9093 20.2078 20.5108 20.7565 21.068 21.3843 21.641 21.9665 22.2974 22.5661 22.907 23.2539 23.5357 23.8936 24.258 24.5543 24.931 25.3148 25.6272 26.0246 26.4301 26.7604 27.1811 27.6108 27.9612 28.408 28.8649 29.2381 29.7145 30.2024 30.6014 31.1116 31.635 32.0637 32.6128 33.1773 33.6405 34.2349 34.8475 35.3512 35.9992 36.6687 37.2208 37.9329 38.671 39.2817 40.072 40.8946 41.5777 42.4655 43.3942 44.1693 45.1821 46.2485 47.1442 48.3229 49.5748 50.6356 52.0453 53.561 54.8615 56.6148 58.5353 60.6583 63.0316 65.7223 68.8284 72.5022 76.9985 82.7953 90.9654 104.932 154 2.65007 2.77546 2.90164 3.02861 3.15638 3.28497 3.41439 3.54464 3.67574 3.8077 3.94053 4.07424 4.20884 4.34435 4.48077 4.59058 4.72869 4.86775 4.9797 5.12051 5.26231 5.37648 5.5201 5.66475 5.78122 5.92777 6.07539 6.19427 6.34386 6.49457 6.61596 6.76873 6.92266 7.04666 7.20274 7.36004 7.48677 7.64632 7.80713 7.93671 8.09987 8.26436 8.39693 8.56387 8.73221 8.8679 9.03881 9.21118 9.35015 9.52521 9.70181 9.84422 10.0236 10.2047 10.3507 10.5347 10.7204 10.8703 11.0591 11.2497 11.4036 11.5975 11.7933 11.9514 12.1507 12.352 12.5145 12.7195 12.9265 13.0938 13.3048 13.518 13.6902 13.9076 14.1273 14.3049 14.529 14.7557 14.9388 15.1702 15.4042 15.5934 15.8325 16.0744 16.27 16.5172 16.7675 16.9701 17.2261 17.4854 17.6953 17.9608 18.2298 18.4477 18.7233 19.0028 19.2292 19.5159 19.8066 20.0423 20.3408 20.6438 20.8896 21.201 21.5174 21.774 22.0996 22.4305 22.6991 23.0401 23.3869 23.6687 24.0266 24.391 24.6874 25.064 25.4478 25.7602 26.1577 26.5631 26.8935 27.3141 27.7438 28.0942 28.541 28.998 29.3711 29.8475 30.3354 30.7345 31.2446 31.768 32.1968 32.7458 33.3103 33.7735 34.368 34.9805 35.4843 36.1322 36.8017 37.3538 38.0659 38.8041 39.4147 40.205 41.0276 41.7107 42.5985 43.5273 44.3024 45.3151 46.3815 47.2772 48.4559 49.7079 50.7686 52.1783 53.6941 54.9945 56.7478 58.6683 60.7913 63.1646 65.8553 68.9614 72.6352 77.1316 82.9283 91.0985 105.065 154 2.78393 2.90932 3.03549 3.16246 3.29024 3.41883 3.54824 3.67849 3.80959 3.94155 4.07438 4.20809 4.34269 4.4782 4.61463 4.72444 4.86255 5.00161 5.11355 5.25436 5.39617 5.51033 5.65395 5.7986 5.91508 6.06162 6.20924 6.32812 6.47772 6.62843 6.74981 6.90258 7.05652 7.18052 7.3366 7.4939 7.62063 7.78017 7.94098 8.07057 8.23373 8.39822 8.53078 8.69773 8.86606 9.00176 9.17266 9.34503 9.484 9.65907 9.83567 9.97807 10.1575 10.3385 10.4846 10.6686 10.8543 11.0041 11.193 11.3836 11.5374 11.7314 11.9272 12.0852 12.2845 12.4858 12.6483 12.8533 13.0604 13.2276 13.4386 13.6519 13.8241 14.0414 14.2612 14.4387 14.6629 14.8895 15.0727 15.304 15.5381 15.7273 15.9663 16.2082 16.4038 16.6511 16.9014 17.1039 17.36 17.6193 17.8292 18.0947 18.3637 18.5815 18.8572 19.1367 19.3631 19.6497 19.9405 20.1762 20.4747 20.7777 21.0234 21.3349 21.6512 21.9079 22.2334 22.5643 22.833 23.1739 23.5208 23.8026 24.1605 24.5249 24.8212 25.1979 25.5817 25.8941 26.2915 26.697 27.0273 27.448 27.8777 28.2281 28.6749 29.1318 29.505 29.9814 30.4693 30.8683 31.3785 31.9019 32.3306 32.